 Gaussian 09, Revision D.01,
 Gaussian 09:  AS64L-G09RevD.01 24-Apr-2013

 --------------------------------------------
 #P opt=(noeigentest, calcfc) cbs-qb3 scf=xqc
 --------------------------------------------

 ----
 name
 ----
 Symbolic Z-matrix:
 Charge =  0 Multiplicity = 1

 SCF Done:  E(RB3LYP) =  -117.943386716     A.U. after   12 cycles
 SCF Done:  E(RB3LYP) =  -117.944055765     A.U. after   10 cycles
 SCF Done:  E(RB3LYP) =  -117.944056709     A.U. after    7 cycles
 Optimization completed.
    -- Stationary point found.
 Normal termination of Gaussian 09 at Sat Feb 16 13:51:54 2019.

 ---------------------------------------------------------
 #P Geom=AllCheck Guess=TCheck SCRF=Check B3LYP/CBSB7 Freq
 ---------------------------------------------------------

 Structure from the checkpoint file:  "check.chk"
 ----
 name
 ----
 Charge =  0 Multiplicity = 1

 SCF Done:  E(RB3LYP) =  -117.944056709     A.U. after    1 cycles

  Exact polarizability:  48.067   0.201  32.962   0.000   0.000  23.097
 Approx polarizability:  68.004   4.634  43.473   0.000   0.000  31.676

                      1                      2                      3
                     A"                     A'                     A"
 Frequencies --    205.9576               426.7517               591.3263
 Red. masses --      1.1614                 1.9551                 1.1951
 Frc consts  --      0.0290                 0.2098                 0.2462
 IR Inten    --      0.4626                 1.0166                13.0633

                      4                      5                      6
                     A'                     A"                     A'
 Frequencies --    924.2247               942.1455               949.1923
 Red. masses --      2.4808                 1.3269                 1.1490
 Frc consts  --      1.2485                 0.6939                 0.6099
 IR Inten    --      2.8814                45.2696                 3.7816

                      7                      8                      9
                     A"                     A"                     A'
 Frequencies --   1030.3184              1070.9240              1189.2986
 Red. masses --      1.0518                 1.5470                 1.8077
 Frc consts  --      0.6578                 1.0453                 1.5065
 IR Inten    --     12.4064                 1.9221                 0.4419

                     10                     11                     12
                     A'                     A'                     A'
 Frequencies --   1328.4490              1407.9689              1449.5011
 Red. masses --      1.2398                 1.2138                 1.2033
 Frc consts  --      1.2891                 1.4177                 1.4895
 IR Inten    --      0.0908                 2.1863                 0.7450

                     13                     14                     15
                     A"                     A'                     A'
 Frequencies --   1481.0245              1495.2044              1713.6107
 Red. masses --      1.0445                 1.0574                 4.4669
 Frc consts  --      1.3499                 1.3928                 7.7282
 IR Inten    --      8.1262                14.8471                13.3603

                     16                     17                     18
                     A'                     A"                     A'
 Frequencies --   3012.8852              3056.5612              3091.9795
 Red. masses --      1.0367                 1.0992                 1.0982
 Frc consts  --      5.5445                 6.0507                 6.1861
 IR Inten    --     26.0061                25.4558                10.7232

                     19                     20                     21
                     A'                     A'                     A'
 Frequencies --   3119.8735              3127.1492              3207.8278
 Red. masses --      1.0716                 1.0800                 1.1148
 Frc consts  --      6.1455                 6.2228                 6.7586
 IR Inten    --     35.8426                 4.6996                22.3378

 - Thermochemistry -
 -------------------
 Temperature   298.150 Kelvin.  Pressure   1.00000 Atm.
 Atom     1 has atomic number  6 and mass  12.00000

 Molecular mass:    42.04695 amu.
 Principal axes and moments of inertia in atomic units:
                           1         2         3
     Eigenvalues --    38.36866 194.54799 221.80645
           X            0.95949   0.28174   0.00000
           Y           -0.28174   0.95949   0.00000
           Z            0.00000   0.00000   1.00000
 This molecule is an asymmetric top.
 Rotational symmetry number  1.
 Rotational temperatures (Kelvin)      2.25741     0.44521     0.39049
 Rotational constants (GHZ):          47.03686     9.27659     8.13656
 Zero-point vibrational energy     208282.9 (Joules/Mol)
                                   49.78080 (Kcal/Mol)
 Warning -- explicit consideration of   3 degrees of freedom as
           vibrations may cause significant error
 Vibrational temperatures:    296.33   614.00   850.79  1329.75  1355.54
          (Kelvin)           1365.67  1482.40  1540.82  1711.13  1911.34
                             2025.75  2085.51  2130.86  2151.26  2465.50
                             4334.86  4397.70  4448.66  4488.80  4499.26
                             4615.34

 Zero-point correction=                           0.079331 (Hartree/Particle)
 Thermal correction to Energy=                    0.083418
 Thermal correction to Enthalpy=                  0.084362
 Thermal correction to Gibbs Free Energy=         0.054323
 Sum of electronic and zero-point Energies=           -117.864726
 Sum of electronic and thermal Energies=              -117.860639
 Sum of electronic and thermal Enthalpies=            -117.859695
 Sum of electronic and thermal Free Energies=         -117.889733

                     E (Thermal)             CV                S
                      KCal/Mol        Cal/Mol-Kelvin    Cal/Mol-Kelvin
 Total                   52.345             12.986             63.221
 Electronic               0.000              0.000              0.000
 Translational            0.889              2.981             37.136
 Rotational               0.889              2.981             22.031
 Vibrational             50.568              7.025              4.055
 Vibration     1          0.640              1.831              2.079
 Vibration     2          0.788              1.412              0.869
 Vibration     3          0.949              1.050              0.465

 Optimization completed.
    -- Stationary point found.
 Normal termination of Gaussian 09 at Sat Feb 16 13:52:43 2019.

 -----------------------------------------------------------
 #P Geom=AllCheck Guess=TCheck SCRF=Check CCSD(T)/6-31+G(d')
 -----------------------------------------------------------

 Structure from the checkpoint file:  "check.chk"
 ----
 name
 ----
 Charge =  0 Multiplicity = 1

 SCF Done:  E(RHF) =  -117.073647714     A.U. after   12 cycles
 E2 =    -0.3915974640D+00 EUMP2 =    -0.11746524517806D+03
 CCSD(T)
 CCSD(T)= -0.11751785989D+03

 1\1\GINC-NODE026\SP\RCCSD(T)-FC\6-31+(d')\C3H6\DUMINDA\16-Feb-2019\0\\
 #P Geom=AllCheck Guess=TCheck SCRF=Check CCSD(T)/6-31+G(d')\\name\\0,1
 \C,0,-1.1028965492,0.1208287653,-0.2597828784\C,0,0.1616845401,-0.2500
 838656,0.4575207775\C,0,1.3930467868,0.0121856094,0.0306530225\H,0,-0.
 8949319445,0.6439191381,-1.1961196039\H,0,-1.7321485455,0.7680652112,0
 .3612557538\H,0,-1.6999744215,-0.7685736288,-0.4900511351\H,0,0.035631
 0387,-0.776233695,1.4024756615\H,0,2.2674195309,-0.2843398042,0.598937
 681\H,0,1.5721693797,0.5342319858,-0.9048893021\\Version=AS64L-G09RevD

 CCSD(T)=-117.5178599\RMSD=5.324e-09\PG=CS [SG(C3H4),X(H2)]\\@
 Normal termination of Gaussian 09 at Sat Feb 16 14:01:47 2019.

 -----------------------------------------------------
 #P Geom=AllCheck Guess=TCheck SCRF=Check MP4SDQ/CBSB4
 -----------------------------------------------------

 Structure from the checkpoint file:  "check.chk"
 ----
 name
 ----
 Charge =  0 Multiplicity = 1

 SCF Done:  E(RHF) =  -117.082611775     A.U. after   10 cycles
 E2 =    -0.4299378564D+00 EUMP2 =    -0.11751254963176D+03
 Normal termination of Gaussian 09 at Sat Feb 16 14:02:33 2019.

 ----------------------------------------------------------------------
 #P Geom=AllCheck Guess=TCheck SCRF=Check MP2/CBSB3 CBSExtrap=(NMin=10,
 MinPop)
 ----------------------------------------------------------------------

 Structure from the checkpoint file:  "check.chk"
 ----
 name
 ----
 Charge =  0 Multiplicity = 1

                         Standard orientation:
 ---------------------------------------------------------------------
 Center     Atomic      Atomic             Coordinates (Angstroms)
 Number     Number       Type             X           Y           Z
 ---------------------------------------------------------------------
      1          6           0        1.136467   -0.506835    0.000000
      2          6           0        0.000000    0.472812    0.000000
      3          6           0       -1.290449    0.153444    0.000000
      4          1           0        0.777340   -1.538642    0.000000
      5          1           0        1.776249   -0.367238    0.878496
      6          1           0        1.776249   -0.367238   -0.878496
      7          1           0        0.279333    1.525255    0.000000
      8          1           0       -2.064426    0.912629    0.000000
      9          1           0       -1.620854   -0.881297    0.000000
 ---------------------------------------------------------------------

 SCF Done:  E(RHF) =  -117.113449826     A.U. after   10 cycles
 E2 =    -0.4994424266D+00 EUMP2 =    -0.11761289225283D+03
 E2(CBS)=      -0.547608 CBS-Int=       0.017624 OIii=       4.560378

 The electronic state is 1-A'.
 Alpha  occ. eigenvalues --  -11.23326 -11.22119 -11.21675  -1.06439  -0.93313
 Alpha  occ. eigenvalues --   -0.75722  -0.63889  -0.58384  -0.56651  -0.52409
 Alpha  occ. eigenvalues --   -0.49013  -0.36018
 Alpha virt. eigenvalues --    0.04209   0.05926   0.06086   0.07415   0.07990
 Alpha virt. eigenvalues --    0.09373   0.11473   0.13960   0.15059   0.16457
 Alpha virt. eigenvalues --    0.17352   0.17807   0.18628   0.20340   0.20930

 Mulliken charges:
               1
     1  C   -0.203550
     2  C    0.178478
     3  C   -0.408906
     4  H    0.068189
     5  H    0.044270
     6  H    0.044270
     7  H    0.115224
     8  H    0.075595
     9  H    0.086429
 Sum of Mulliken charges =   0.00000

 Dipole moment (field-independent basis, Debye):
    X=              0.4096    Y=             -0.0519    Z=              0.0000  Tot=              0.4129
 Quadrupole moment (field-independent basis, Debye-Ang):
   XX=            -19.2294   YY=            -19.2088   ZZ=            -22.3613
   XY=              0.2871   XZ=              0.0000   YZ=              0.0000

 Normal termination of Gaussian 09 at Sat Feb 16 14:04:14 2019.
