 Gaussian 09, Revision D.01,
 Gaussian 09:  AS64L-G09RevD.01 24-Apr-2013

 ---------------------------------------
 #P b3lyp/cbsb7 freq iop(7/33=1) scf=xqc
 ---------------------------------------

 ----
 name
 ----
 Symbolic Z-matrix:
 Charge =  0 Multiplicity = 1

                         Standard orientation:
 ---------------------------------------------------------------------
 Center     Atomic      Atomic             Coordinates (Angstroms)
 Number     Number       Type             X           Y           Z
 ---------------------------------------------------------------------
      1          7           0        0.710683   -0.075559    0.100032
      2          7           0       -0.710682   -0.075561   -0.100030
      3          1           0        1.141024   -0.310705   -0.786763
      4          1           0        1.059034    0.839621    0.377776
      5          1           0       -1.059034    0.839614   -0.377791
      6          1           0       -1.141024   -0.310690    0.786767
 ---------------------------------------------------------------------

 SCF Done:  E(RB3LYP) =  -111.901533228     A.U. after   10 cycles

 The electronic state is 1-A.
 Alpha  occ. eigenvalues --  -14.30735 -14.30723  -0.94109  -0.74526  -0.49744
 Alpha  occ. eigenvalues --   -0.48429  -0.44732  -0.24992  -0.24507
 Alpha virt. eigenvalues --    0.03720   0.06524   0.10879   0.11781   0.22148
 Alpha virt. eigenvalues --    0.36964   0.40229   0.42328   0.44709   0.58689
 Alpha virt. eigenvalues --    0.61360   0.63037   0.71290   0.73928   0.75546

 Mulliken charges:
               1
     1  N   -0.401911
     2  N   -0.401911
     3  H    0.211899
     4  H    0.190011
     5  H    0.190011
     6  H    0.211900
 Sum of Mulliken charges =   0.00000

 Dipole moment (field-independent basis, Debye):
    X=              0.0000    Y=              2.0559    Z=              0.0000  Tot=              2.0559
 Quadrupole moment (field-independent basis, Debye-Ang):
   XX=            -12.0201   YY=            -12.8964   ZZ=            -12.9567
   XY=              0.0000   XZ=             -2.5996   YZ=              0.0000

  Exact polarizability:  20.121   0.000  15.216  -1.067   0.000  15.033
 Approx polarizability:  24.541   0.000  19.710  -1.308   0.000  19.419

                      1                      2                      3
                      A                      A                      A
 Frequencies --    444.4393               817.5928               998.6528
 Red. masses --      1.0495                 1.8752                 1.1810
 Frc consts  --      0.1221                 0.7385                 0.6940
 IR Inten    --     39.3307                76.7688               148.4495

                      4                      5                      6
                      A                      A                      A
 Frequencies --   1120.1728              1304.0285              1334.4666
 Red. masses --      1.9808                 1.1742                 1.2324
 Frc consts  --      1.4644                 1.1765                 1.2931
 IR Inten    --     12.5968                 5.1201                 3.9202

                      7                      8                      9
                      A                      A                      A
 Frequencies --   1680.4943              1697.0510              3435.8666
 Red. masses --      1.0892                 1.0463                 1.0546
 Frc consts  --      1.8123                 1.7755                 7.3355
 IR Inten    --     15.2226                12.8546                23.2757

                     10                     11                     12
                      A                      A                      A
 Frequencies --   3447.9489              3548.1449              3555.5196
 Red. masses --      1.0506                 1.0924                 1.0881
 Frc consts  --      7.3589                 8.1030                 8.1043
 IR Inten    --      4.1891                 0.3412                 0.0858

 - Thermochemistry -
 -------------------
 Temperature   298.150 Kelvin.  Pressure   1.00000 Atm.
 Atom     1 has atomic number  7 and mass  14.00307

 Molecular mass:    32.03745 amu.
 Principal axes and moments of inertia in atomic units:
                           1         2         3
     Eigenvalues --    12.49906  74.37627  74.44084
           X            0.99837  -0.05711   0.00000
           Y            0.00000   0.00002   1.00000
           Z            0.05711   0.99837  -0.00002
 This molecule is an asymmetric top.
 Rotational symmetry number  1.
 Rotational temperatures (Kelvin)      6.92963     1.16454     1.16353
 Rotational constants (GHZ):         144.39020    24.26501    24.24397
 Zero-point vibrational energy     139869.6 (Joules/Mol)
                                   33.42965 (Kcal/Mol)
 Warning -- explicit consideration of   1 degrees of freedom as
           vibrations may cause significant error
 Vibrational temperatures:    639.45  1176.33  1436.84  1611.68  1876.20
          (Kelvin)           1920.00  2417.85  2441.67  4943.44  4960.82
                             5104.98  5115.59

 Zero-point correction=                           0.053274 (Hartree/Particle)
 Thermal correction to Energy=                    0.056533
 Thermal correction to Enthalpy=                  0.057478
 Thermal correction to Gibbs Free Energy=         0.030671
 Sum of electronic and zero-point Energies=           -111.848260
 Sum of electronic and thermal Energies=              -111.845000
 Sum of electronic and thermal Enthalpies=            -111.844056
 Sum of electronic and thermal Free Energies=         -111.870863

                     E (Thermal)             CV                S
                      KCal/Mol        Cal/Mol-Kelvin    Cal/Mol-Kelvin
 Total                   35.475              8.953             56.420
 Electronic               0.000              0.000              0.000
 Translational            0.889              2.981             36.325
 Rotational               0.889              2.981             18.876
 Vibrational             33.698              2.992              1.219
 Vibration     1          0.804              1.373              0.813

 Optimization completed.
    -- Stationary point found.
 Normal termination of Gaussian 09 at Sat Feb 16 14:38:59 2019.
