 Gaussian 09, Revision D.01,
 Gaussian 09:  AS64L-G09RevD.01 24-Apr-2013

 ----------------------------------------
 #P ub3lyp/cbsb7 freq iop(7/33=1) scf=xqc
 ----------------------------------------

 ----
 name
 ----
 Symbolic Z-matrix:
 Charge =  0 Multiplicity = 2

                         Standard orientation:
 ---------------------------------------------------------------------
 Center     Atomic      Atomic             Coordinates (Angstroms)
 Number     Number       Type             X           Y           Z
 ---------------------------------------------------------------------
      1          8           0       -1.168069   -0.264352    0.000000
      2          6           0        1.168069   -0.171646    0.000000
      3          6           0       -0.133797    0.406461    0.000000
      4          1           0        2.059075    0.444359    0.000000
      5          1           0        1.262774   -1.250674   -0.000001
      6          1           0       -0.182931    1.512240    0.000000
 ---------------------------------------------------------------------

 SCF Done:  E(UB3LYP) =  -153.216864554     A.U. after   17 cycles

 The electronic state is 2-A.
 Alpha  occ. eigenvalues --  -19.12706 -10.25625 -10.21985  -1.05243  -0.76886
 Alpha  occ. eigenvalues --   -0.58811  -0.50364  -0.45776  -0.42079  -0.41981
 Alpha  occ. eigenvalues --   -0.27472  -0.27421
 Alpha virt. eigenvalues --   -0.00115   0.05148   0.07029   0.11181   0.20538
 Alpha virt. eigenvalues --    0.24781   0.32323   0.34368   0.37075   0.42264
 Alpha virt. eigenvalues --    0.45264   0.56703   0.57067   0.60035   0.62301

  Beta  occ. eigenvalues --  -19.11750 -10.25854 -10.20862  -1.03520  -0.74136
  Beta  occ. eigenvalues --   -0.58068  -0.49681  -0.44877  -0.41328  -0.38161
  Beta  occ. eigenvalues --   -0.26422
  Beta virt. eigenvalues --   -0.14080   0.03154   0.05474   0.07307   0.11363
  Beta virt. eigenvalues --    0.20684   0.24992   0.33196   0.35913   0.39219
  Beta virt. eigenvalues --    0.42754   0.47573   0.56799   0.57624   0.60513

 Mulliken charges and spin densities:
               1          2
     1  O   -0.278161   0.361019
     2  C   -0.186271   0.863227
     3  C    0.121627  -0.148728
     4  H    0.128168  -0.038382
     5  H    0.141468  -0.038176
     6  H    0.073169   0.001040
 Sum of Mulliken charges =   0.00000   1.00000

 Dipole moment (field-independent basis, Debye):
    X=              2.6858    Y=              0.8758    Z=              0.0000  Tot=              2.8250
 Quadrupole moment (field-independent basis, Debye-Ang):
   XX=            -18.9784   YY=            -16.7032   ZZ=            -18.2490
   XY=             -0.9148   XZ=              0.0000   YZ=              0.0000

  Exact polarizability:  34.807   0.213  25.850   0.000   0.000  13.360
 Approx polarizability:  53.781   4.538  34.049   0.000   0.000  17.961

                      1                      2                      3
                      A                      A                      A
 Frequencies --    448.5123               504.2996               754.4484
 Red. masses --      1.2015                 2.3470                 1.2101
 Frc consts  --      0.1424                 0.3517                 0.4058
 IR Inten    --      0.2505                12.9839                37.3469

                      4                      5                      6
                      A                      A                      A
 Frequencies --    974.1215               979.7032              1150.7799
 Red. masses --      1.8048                 1.6147                 2.6564
 Frc consts  --      1.0090                 0.9131                 2.0727
 IR Inten    --      3.1095                 0.7246                21.8197

                      7                      8                      9
                      A                      A                      A
 Frequencies --   1395.9084              1469.2248              1552.3908
 Red. masses --      1.2533                 1.3012                 5.4472
 Frc consts  --      1.4389                 1.6549                 7.7344
 IR Inten    --     13.3177                13.7822                39.6507

                     10                     11                     12
                      A                      A                      A
 Frequencies --   2928.6541              3142.2873              3258.6208
 Red. masses --      1.0838                 1.0517                 1.1200
 Frc consts  --      5.4770                 6.1185                 7.0070
 IR Inten    --    102.7252                 2.4574                 4.4143

 - Thermochemistry -
 -------------------
 Temperature   298.150 Kelvin.  Pressure   1.00000 Atm.
 Atom     1 has atomic number  8 and mass  15.99491

 Molecular mass:    43.01839 amu.
 Principal axes and moments of inertia in atomic units:
                           1         2         3
     Eigenvalues --    26.78810 157.55912 184.34722
           X            0.99971  -0.02408   0.00000
           Y            0.02408   0.99971   0.00000
           Z            0.00000   0.00000   1.00000
 This molecule is an asymmetric top.
 Rotational symmetry number  1.
 Rotational temperatures (Kelvin)      3.23329     0.54972     0.46984
 Rotational constants (GHZ):          67.37100    11.45437     9.78990
 Zero-point vibrational energy     111007.2 (Joules/Mol)
                                   26.53135 (Kcal/Mol)
 Warning -- explicit consideration of   2 degrees of freedom as
           vibrations may cause significant error
 Vibrational temperatures:    645.31   725.57  1085.48  1401.54  1409.57
          (Kelvin)           1655.71  2008.40  2113.88  2233.54  4213.67
                             4521.04  4688.42

 Zero-point correction=                           0.042280 (Hartree/Particle)
 Thermal correction to Energy=                    0.045810
 Thermal correction to Enthalpy=                  0.046754
 Thermal correction to Gibbs Free Energy=         0.017365
 Sum of electronic and zero-point Energies=           -153.174584
 Sum of electronic and thermal Energies=              -153.171055
 Sum of electronic and thermal Enthalpies=            -153.170111
 Sum of electronic and thermal Free Energies=         -153.199500

                     E (Thermal)             CV                S
                      KCal/Mol        Cal/Mol-Kelvin    Cal/Mol-Kelvin
 Total                   28.746             10.594             61.854
 Electronic               0.000              0.000              1.377
 Translational            0.889              2.981             37.204
 Rotational               0.889              2.981             21.281
 Vibrational             26.969              4.633              1.993
 Vibration     1          0.808              1.364              0.800
 Vibration     2          0.860              1.240              0.647

 Normal termination of Gaussian 09 at Sat Feb 16 14:13:31 2019.
