 Gaussian 09, Revision D.01,
 Gaussian 09:  AS64L-G09RevD.01 24-Apr-2013

 ----------------------------------------------------------------------
 #P b3lyp/cbsb7 freq iop(7/33=1) scf=(tight, direct) integral=(grid=ult
 rafine, Acc2E=12) scf=xqc iop(2/9=2000)
 ----------------------------------------------------------------------

 ----
 name
 ----
 Symbolic Z-matrix:
 Charge =  0 Multiplicity = 1

                         Standard orientation:
 ---------------------------------------------------------------------
 Center     Atomic      Atomic             Coordinates (Angstroms)
 Number     Number       Type             X           Y           Z
 ---------------------------------------------------------------------
      1          1           0        0.000000    0.000000    0.372087
      2          1           0        0.000000    0.000000   -0.372087
 ---------------------------------------------------------------------

 SCF Done:  E(RB3LYP) =  -1.17957105545     A.U. after    6 cycles

 The electronic state is 1-SGG.
 Alpha  occ. eigenvalues --   -0.43394
 Alpha virt. eigenvalues --    0.05739   0.19694   0.46982   1.08461   1.08461
 Alpha virt. eigenvalues --    1.55107   1.82672   1.82672   1.94584   2.37713
 Alpha virt. eigenvalues --    3.31098

 Mulliken charges:
               1
     1  H    0.000000
     2  H    0.000000
 Sum of Mulliken charges =   0.00000

 Dipole moment (field-independent basis, Debye):
    X=              0.0000    Y=              0.0000    Z=              0.0000  Tot=              0.0000
 Quadrupole moment (field-independent basis, Debye-Ang):
   XX=             -2.1052   YY=             -2.1052   ZZ=             -1.5483
   XY=              0.0000   XZ=              0.0000   YZ=              0.0000

  Exact polarizability:   1.096   0.000   1.096   0.000   0.000   6.897
 Approx polarizability:   1.162   0.000   1.162   0.000   0.000   8.197

                      1
                     SGG
 Frequencies --   4419.1900
 Red. masses --      1.0078
 Frc consts  --     11.5963
 IR Inten    --      0.0000

 - Thermochemistry -
 -------------------
 Temperature   298.150 Kelvin.  Pressure   1.00000 Atm.
 Atom     1 has atomic number  1 and mass   1.00783

 Molecular mass:     2.01565 amu.
 Principal axes and moments of inertia in atomic units:
                           1         2         3
     Eigenvalues --     0.00000   0.99656   0.99656
           X            0.00000   1.00000   0.00000
           Y            0.00000   0.00000   1.00000
           Z            1.00000   0.00000   0.00000
 This molecule is a prolate symmetric top.
 Rotational symmetry number  2.
 Rotational temperature (Kelvin)     86.91311
 Rotational constant (GHZ):        1810.977537
 Zero-point vibrational energy      26432.6 (Joules/Mol)
                                    6.31755 (Kcal/Mol)
 Vibrational temperatures:   6358.22
          (Kelvin)

 Zero-point correction=                           0.010068 (Hartree/Particle)
 Thermal correction to Energy=                    0.012428
 Thermal correction to Enthalpy=                  0.013372
 Thermal correction to Gibbs Free Energy=        -0.001423
 Sum of electronic and zero-point Energies=             -1.169503
 Sum of electronic and thermal Energies=                -1.167143
 Sum of electronic and thermal Enthalpies=              -1.166199
 Sum of electronic and thermal Free Energies=           -1.180994

                     E (Thermal)             CV                S
                      KCal/Mol        Cal/Mol-Kelvin    Cal/Mol-Kelvin
 Total                    7.799              4.968             31.140
 Electronic               0.000              0.000              0.000
 Translational            0.889              2.981             28.080
 Rotational               0.592              1.987              3.059
 Vibrational              6.318              0.000              0.000

 Optimization completed.
    -- Stationary point found.

 1\1\GINC-NODE084\Freq\RB3LYP\6-311G(2d,d,p)\H2\DUMINDA\22-Mar-2019\0\\
 #P b3lyp/cbsb7 freq iop(7/33=1) scf=(tight, direct) integral=(grid=ult
 rafine, Acc2E=12) scf=xqc iop(2/9=2000)\\name\\0,1\H,1.085656,0.086341
 ,0.027562\H,1.82983,0.086341,0.027562\\Version=AS64L-G09RevD.01\State=
 1-SGG\HF=-1.1795711\RMSD=5.670e-10\RMSF=2.512e-07\ZeroPoint=0.0100677\
 Thermal=0.0124281\Dipole=0.,0.,0.\DipoleDeriv=0.,0.,0.,0.,0.,0.,0.,0.,
 0.,0.,0.,0.,0.,0.,0.,0.,0.,0.\Polar=6.8969471,0.,1.0962489,0.,0.,1.096
 2489\PG=D*H [C*(H1.H1)]\NImag=0\\0.37241909,0.,0.00000030,0.,0.,0.0000

 Normal termination of Gaussian 09 at Fri Mar 22 11:18:42 2019.
