 Gaussian 09, Revision D.01,
 Gaussian 09:  AS64L-G09RevD.01 24-Apr-2013

 ---------------------------------------
 #P b3lyp/cbsb7 freq iop(7/33=1) scf=xqc
 ---------------------------------------

 ----
 name
 ----
 Symbolic Z-matrix:
 Charge =  0 Multiplicity = 1

                         Standard orientation:
 ---------------------------------------------------------------------
 Center     Atomic      Atomic             Coordinates (Angstroms)
 Number     Number       Type             X           Y           Z
 ---------------------------------------------------------------------
      1          1           0        0.000000    0.000000    0.372130
      2          1           0        0.000000    0.000000   -0.372130
 ---------------------------------------------------------------------

 SCF Done:  E(RB3LYP) =  -1.17957101801     A.U. after    7 cycles

 The electronic state is 1-SGG.
 Alpha  occ. eigenvalues --   -0.43392
 Alpha virt. eigenvalues --    0.05737   0.19695   0.46979   1.08461   1.08461
 Alpha virt. eigenvalues --    1.55103   1.82666   1.82666   1.94597   2.37713
 Alpha virt. eigenvalues --    3.31053

 Mulliken charges:
               1
     1  H    0.000000
     2  H    0.000000
 Sum of Mulliken charges =   0.00000

 Dipole moment (field-independent basis, Debye):
    X=              0.0000    Y=              0.0000    Z=              0.0000  Tot=              0.0000
 Quadrupole moment (field-independent basis, Debye-Ang):
   XX=             -2.1053   YY=             -2.1053   ZZ=             -1.5483
   XY=              0.0000   XZ=              0.0000   YZ=              0.0000

  Exact polarizability:   1.096   0.000   1.096   0.000   0.000   6.898
 Approx polarizability:   1.162   0.000   1.162   0.000   0.000   8.199

                      1
                     SGG
 Frequencies --   4418.0545
 Red. masses --      1.0078
 Frc consts  --     11.5904
 IR Inten    --      0.0000

 - Thermochemistry -
 -------------------
 Temperature   298.150 Kelvin.  Pressure   1.00000 Atm.
 Atom     1 has atomic number  1 and mass   1.00783

 Molecular mass:     2.01565 amu.
 Principal axes and moments of inertia in atomic units:
                           1         2         3
     Eigenvalues --     0.00000   0.99678   0.99678
           X            0.00000   1.00000   0.00000
           Y            0.00000   0.00000   1.00000
           Z            1.00000   0.00000   0.00000
 This molecule is a prolate symmetric top.
 Rotational symmetry number  2.
 Rotational temperature (Kelvin)     86.89326
 Rotational constant (GHZ):        1810.563906
 Zero-point vibrational energy      26425.8 (Joules/Mol)
                                    6.31593 (Kcal/Mol)
 Vibrational temperatures:   6356.59
          (Kelvin)

 Zero-point correction=                           0.010065 (Hartree/Particle)
 Thermal correction to Energy=                    0.012426
 Thermal correction to Enthalpy=                  0.013370
 Thermal correction to Gibbs Free Energy=        -0.001426
 Sum of electronic and zero-point Energies=             -1.169506
 Sum of electronic and thermal Energies=                -1.167145
 Sum of electronic and thermal Enthalpies=              -1.166201
 Sum of electronic and thermal Free Energies=           -1.180997

                     E (Thermal)             CV                S
                      KCal/Mol        Cal/Mol-Kelvin    Cal/Mol-Kelvin
 Total                    7.797              4.968             31.140
 Electronic               0.000              0.000              0.000
 Translational            0.889              2.981             28.080
 Rotational               0.592              1.987              3.060
 Vibrational              6.316              0.000              0.000

 Optimization completed.
    -- Stationary point found.

 1\1\GINC-NODE006\Freq\RB3LYP\6-311G(2d,d,p)\H2\DUMINDA\16-Feb-2019\0\\
 #P b3lyp/cbsb7 freq iop(7/33=1) scf=xqc\\name\\0,1\H,1.198048,0.018743
 ,0.06873\H,1.942307,0.018743,0.06873\\Version=AS64L-G09RevD.01\State=1
 -SGG\HF=-1.179571\RMSD=1.798e-09\RMSF=3.449e-05\ZeroPoint=0.0100651\Th
 ermal=0.0124255\Dipole=0.,0.,0.\DipoleDeriv=0.,0.,0.,0.,0.,0.,0.,0.,0.
 ,0.,0.,0.,0.,0.,0.,0.,0.,0.\Polar=6.8979722,0.,1.0962983,0.,0.,1.09629
 83\PG=D*H [C*(H1.H1)]\NImag=0\\0.37222774,0.,0.00003886,0.,0.,0.000038
 86,-0.37222774,0.,0.,0.37222774,0.,-0.00003886,0.,0.,0.00003886,0.,0.,

 Normal termination of Gaussian 09 at Sat Feb 16 13:26:28 2019.
