 Gaussian 09, Revision D.01,
 Gaussian 09:  AS64L-G09RevD.01 24-Apr-2013

 ---------------------------------------------------------------
 #P opt=(modredundant, calcfc, noeigentest) ub3lyp/cbsb7 scf=xqc
 ---------------------------------------------------------------

 ----
 name
 ----
 Symbolic Z-matrix:
 Charge =  0 Multiplicity = 2

 SCF Done:  E(UB3LYP) =  -153.216864554     A.U. after   17 cycles

  Exact polarizability:   0.000   0.000   0.000   0.000   0.000   0.000
 Approx polarizability:  53.781   4.538  34.049   0.000   0.000  17.961

 Optimization completed.
    -- Stationary point found.
 SCF Done:  E(UB3LYP) =  -153.216222254     A.U. after   17 cycles
 SCF Done:  E(UB3LYP) =  -153.216499263     A.U. after   16 cycles
 SCF Done:  E(UB3LYP) =  -153.216500148     A.U. after   12 cycles
 Optimization completed.
 SCF Done:  E(UB3LYP) =  -153.215114933     A.U. after   17 cycles
 SCF Done:  E(UB3LYP) =  -153.215411831     A.U. after   18 cycles
 SCF Done:  E(UB3LYP) =  -153.215412990     A.U. after   12 cycles
 SCF Done:  E(UB3LYP) =  -153.213304412     A.U. after   17 cycles
 SCF Done:  E(UB3LYP) =  -153.213642826     A.U. after   18 cycles
 SCF Done:  E(UB3LYP) =  -153.213643895     A.U. after   12 cycles
 SCF Done:  E(UB3LYP) =  -153.213642120     A.U. after   17 cycles
 SCF Done:  E(UB3LYP) =  -153.213643855     A.U. after   12 cycles
 SCF Done:  E(UB3LYP) =  -153.215068398     A.U. after   17 cycles
 SCF Done:  E(UB3LYP) =  -153.215411926     A.U. after   18 cycles
 SCF Done:  E(UB3LYP) =  -153.215412977     A.U. after   12 cycles
 SCF Done:  E(UB3LYP) =  -153.216198665     A.U. after   17 cycles
 SCF Done:  E(UB3LYP) =  -153.216499748     A.U. after   18 cycles
 SCF Done:  E(UB3LYP) =  -153.216500145     A.U. after   10 cycles
    -- Stationary point found.
 SCF Done:  E(UB3LYP) =  -153.216586572     A.U. after   17 cycles
 SCF Done:  E(UB3LYP) =  -153.216865100     A.U. after   16 cycles
 Optimization completed.
    -- Stationary point found.

                         Standard orientation:
 ---------------------------------------------------------------------
 Center     Atomic      Atomic             Coordinates (Angstroms)
 Number     Number       Type             X           Y           Z
 ---------------------------------------------------------------------
      1          8           0       -1.167972   -0.264401    0.000001
      2          6           0        1.167640   -0.171579   -0.000022
      3          6           0       -0.133379    0.406279   -0.000072
      4          1           0        2.058161    0.446001   -0.000089
      5          1           0        1.264765   -1.250822    0.000282
      6          1           0       -0.184717    1.511834    0.000363
 ---------------------------------------------------------------------

 The electronic state is 2-A.
 Alpha  occ. eigenvalues --  -19.12699 -10.25611 -10.21993  -1.05233  -0.76898
 Alpha  occ. eigenvalues --   -0.58805  -0.50360  -0.45790  -0.42080  -0.41964
 Alpha  occ. eigenvalues --   -0.27478  -0.27417
 Alpha virt. eigenvalues --   -0.00106   0.05143   0.07017   0.11186   0.20544
 Alpha virt. eigenvalues --    0.24792   0.32333   0.34351   0.37069   0.42272
 Alpha virt. eigenvalues --    0.45270   0.56700   0.57061   0.60047   0.62300

  Beta  occ. eigenvalues --  -19.11740 -10.25841 -10.20871  -1.03505  -0.74149
  Beta  occ. eigenvalues --   -0.58063  -0.49678  -0.44891  -0.41310  -0.38153
  Beta  occ. eigenvalues --   -0.26416
  Beta virt. eigenvalues --   -0.14085   0.03164   0.05469   0.07295   0.11367
  Beta virt. eigenvalues --    0.20691   0.25002   0.33188   0.35909   0.39213
  Beta virt. eigenvalues --    0.42760   0.47574   0.56798   0.57617   0.60523

 Mulliken charges and spin densities:
               1          2
     1  O   -0.278162   0.362130
     2  C   -0.185928   0.862405
     3  C    0.121193  -0.149090
     4  H    0.128062  -0.038374
     5  H    0.141529  -0.038142
     6  H    0.073307   0.001070
 Sum of Mulliken charges =   0.00000   1.00000

 Dipole moment (field-independent basis, Debye):
    X=              2.6864    Y=              0.8750    Z=              0.0002  Tot=              2.8253
 Quadrupole moment (field-independent basis, Debye-Ang):
   XX=            -18.9784   YY=            -16.7000   ZZ=            -18.2491
   XY=             -0.9212   XZ=              0.0002   YZ=             -0.0002

 Normal termination of Gaussian 09 at Sat Feb 16 15:01:08 2019.
