 Gaussian 09, Revision D.01,
 Gaussian 09:  AS64L-G09RevD.01 24-Apr-2013

 --------------------------------------------
 #P opt=(noeigentest, calcfc) cbs-qb3 scf=xqc
 --------------------------------------------

 ----
 name
 ----
 Symbolic Z-matrix:
 Charge =  0 Multiplicity = 2

 SCF Done:  E(UB3LYP) =  -153.214407271     A.U. after   17 cycles
 SCF Done:  E(UB3LYP) =  -153.216717221     A.U. after   15 cycles
 SCF Done:  E(UB3LYP) =  -153.216864554     A.U. after   11 cycles
 Optimization completed.
    -- Stationary point found.
 Normal termination of Gaussian 09 at Sat Feb 16 13:50:51 2019.

 ---------------------------------------------------------
 #P Geom=AllCheck Guess=TCheck SCRF=Check B3LYP/CBSB7 Freq
 ---------------------------------------------------------

 Structure from the checkpoint file:  "check.chk"
 ----
 name
 ----
 Charge =  0 Multiplicity = 2

 SCF Done:  E(UB3LYP) =  -153.216864554     A.U. after    1 cycles

  Exact polarizability:  34.807  -0.213  25.850   0.000   0.000  13.360
 Approx polarizability:  53.781  -4.538  34.049   0.000   0.000  17.961

                      1                      2                      3
                      A                      A                      A
 Frequencies --    448.5125               504.2998               754.4490
 Red. masses --      1.2015                 2.3470                 1.2101
 Frc consts  --      0.1424                 0.3517                 0.4058
 IR Inten    --      0.2505                12.9838                37.3469

                      4                      5                      6
                      A                      A                      A
 Frequencies --    974.1215               979.7016              1150.7800
 Red. masses --      1.8048                 1.6147                 2.6564
 Frc consts  --      1.0090                 0.9131                 2.0727
 IR Inten    --      3.1095                 0.7246                21.8198

                      7                      8                      9
                      A                      A                      A
 Frequencies --   1395.9077              1469.2250              1552.3899
 Red. masses --      1.2533                 1.3012                 5.4472
 Frc consts  --      1.4389                 1.6549                 7.7344
 IR Inten    --     13.3176                13.7823                39.6506

                     10                     11                     12
                      A                      A                      A
 Frequencies --   2928.6615              3142.2867              3258.6200
 Red. masses --      1.0838                 1.0517                 1.1200
 Frc consts  --      5.4770                 6.1185                 7.0070
 IR Inten    --    102.7246                 2.4574                 4.4144

 - Thermochemistry -
 -------------------
 Temperature   298.150 Kelvin.  Pressure   1.00000 Atm.
 Atom     1 has atomic number  8 and mass  15.99491

 Molecular mass:    43.01839 amu.
 Principal axes and moments of inertia in atomic units:
                           1         2         3
     Eigenvalues --    26.78811 157.55911 184.34722
           X            0.99971   0.02408   0.00000
           Y           -0.02408   0.99971   0.00000
           Z            0.00000   0.00000   1.00000
 This molecule is an asymmetric top.
 Rotational symmetry number  1.
 Rotational temperatures (Kelvin)      3.23329     0.54972     0.46984
 Rotational constants (GHZ):          67.37098    11.45438     9.78990
 Zero-point vibrational energy     111007.2 (Joules/Mol)
                                   26.53136 (Kcal/Mol)
 Warning -- explicit consideration of   2 degrees of freedom as
           vibrations may cause significant error
 Vibrational temperatures:    645.31   725.57  1085.48  1401.54  1409.57
          (Kelvin)           1655.71  2008.40  2113.88  2233.54  4213.69
                             4521.04  4688.42

 Zero-point correction=                           0.042280 (Hartree/Particle)
 Thermal correction to Energy=                    0.045810
 Thermal correction to Enthalpy=                  0.046754
 Thermal correction to Gibbs Free Energy=         0.017365
 Sum of electronic and zero-point Energies=           -153.174584
 Sum of electronic and thermal Energies=              -153.171055
 Sum of electronic and thermal Enthalpies=            -153.170111
 Sum of electronic and thermal Free Energies=         -153.199500

                     E (Thermal)             CV                S
                      KCal/Mol        Cal/Mol-Kelvin    Cal/Mol-Kelvin
 Total                   28.746             10.594             61.854
 Electronic               0.000              0.000              1.377
 Translational            0.889              2.981             37.204
 Rotational               0.889              2.981             21.281
 Vibrational             26.969              4.633              1.993
 Vibration     1          0.808              1.364              0.800
 Vibration     2          0.860              1.240              0.647

 Optimization completed.
    -- Stationary point found.
 Normal termination of Gaussian 09 at Sat Feb 16 13:51:30 2019.

 -----------------------------------------------------------
 #P Geom=AllCheck Guess=TCheck SCRF=Check CCSD(T)/6-31+G(d')
 -----------------------------------------------------------

 Structure from the checkpoint file:  "check.chk"
 ----
 name
 ----
 Charge =  0 Multiplicity = 2

 SCF Done:  E(UHF) =  -152.304967446     A.U. after   16 cycles
 E2 =    -0.4010461041D+00 EUMP2 =    -0.15270601355038D+03
 CCSD(T)
 CCSD(T)= -0.15275792906D+03
 Normal termination of Gaussian 09 at Sat Feb 16 14:09:59 2019.

 -----------------------------------------------------
 #P Geom=AllCheck Guess=TCheck SCRF=Check MP4SDQ/CBSB4
 -----------------------------------------------------

 Structure from the checkpoint file:  "check.chk"
 ----
 name
 ----
 Charge =  0 Multiplicity = 2

 SCF Done:  E(UHF) =  -152.309644440     A.U. after   14 cycles
 E2 =    -0.4193058799D+00 EUMP2 =    -0.15272895031999D+03

 1\1\GINC-NODE028\SP\UMP4SDQ-FC\CBSB4\C2H3O1(2)\DUMINDA\16-Feb-2019\0\\
 #P Geom=AllCheck Guess=TCheck SCRF=Check MP4SDQ/CBSB4\\name\\0,2\O,0,0
 .9863560947,-0.1540769733,0.2605402735\C,0,2.8154223563,1.2670415306,0
 .5784571338\C,0,2.1641143724,0.1260835356,0.0279349833\H,0,3.852308291
 6,1.4872751558,0.3554783404\H,0,2.2568891931,1.9247137133,1.2332700303
 \H,0,2.7729006919,-0.5176889621,-0.6354617612\\Version=AS64L-G09RevD.0
 1\State=2-A\HF=-152.3096444\MP2=-152.7289503\MP3=-152.7520118\MP4D=-15
 2.7622793\MP4DQ=-152.7552762\MP4SDQ=-152.7622941\PUHF=-152.3259903\PMP

 Normal termination of Gaussian 09 at Sat Feb 16 14:11:19 2019.

 ----------------------------------------------------------------------
 #P Geom=AllCheck Guess=TCheck SCRF=Check MP2/CBSB3 CBSExtrap=(NMin=10,
 MinPop)
 ----------------------------------------------------------------------

 Structure from the checkpoint file:  "check.chk"
 ----
 name
 ----
 Charge =  0 Multiplicity = 2

                         Standard orientation:
 ---------------------------------------------------------------------
 Center     Atomic      Atomic             Coordinates (Angstroms)
 Number     Number       Type             X           Y           Z
 ---------------------------------------------------------------------
      1          8           0        1.168069   -0.264352    0.000000
      2          6           0       -1.168069   -0.171646    0.000000
      3          6           0        0.133797    0.406462    0.000000
      4          1           0       -2.059076    0.444358    0.000000
      5          1           0       -1.262774   -1.250675    0.000000
      6          1           0        0.182931    1.512240    0.000000
 ---------------------------------------------------------------------

 SCF Done:  E(UHF) =  -152.353984818     A.U. after   14 cycles
 E2 =    -0.5040559996D+00 EUMP2 =    -0.15285804081722D+03
 E2(CBS)=      -0.556556 CBS-Int=       0.016318 OIii=       4.397162

 The electronic state is 2-A.
 Alpha  occ. eigenvalues --  -20.59387 -11.30867 -11.27035  -1.42661  -1.03816
 Alpha  occ. eigenvalues --   -0.79984  -0.69527  -0.65147  -0.62444  -0.58624
 Alpha  occ. eigenvalues --   -0.46486  -0.42163
 Alpha virt. eigenvalues --    0.04218   0.05735   0.06684   0.10906   0.11888
 Alpha virt. eigenvalues --    0.12051   0.13550   0.16512   0.17657   0.19740
 Alpha virt. eigenvalues --    0.20788   0.20801   0.25104   0.28649   0.30020

  Beta  occ. eigenvalues --  -20.56806 -11.32098 -11.25047  -1.36525  -0.97806
  Beta  occ. eigenvalues --   -0.78846  -0.68236  -0.63255  -0.57519  -0.48559
  Beta  occ. eigenvalues --   -0.43992
  Beta virt. eigenvalues --    0.04288   0.04306   0.05760   0.06711   0.11889
  Beta virt. eigenvalues --    0.12610   0.13572   0.13645   0.16846   0.17726
  Beta virt. eigenvalues --    0.19910   0.21008   0.24105   0.25879   0.28912

 Mulliken charges and spin densities:
               1          2
     1  O   -0.271460   0.593077
     2  C   -0.027698   1.021856
     3  C    0.025423  -0.517761
     4  H    0.074756  -0.062232
     5  H    0.108127  -0.062604
     6  H    0.090852   0.027665
 Sum of Mulliken charges =   0.00000   1.00000

 Dipole moment (field-independent basis, Debye):
    X=             -2.6702    Y=              1.0166    Z=              0.0000  Tot=              2.8572
 Quadrupole moment (field-independent basis, Debye-Ang):
   XX=            -19.2172   YY=            -16.6372   ZZ=            -18.6135
   XY=              1.0025   XZ=              0.0000   YZ=              0.0000

 Normal termination of Gaussian 09 at Sat Feb 16 14:12:23 2019.
