 Gaussian 09, Revision D.01,
 Gaussian 09:  AS64L-G09RevD.01 24-Apr-2013

 ----------------------------------------------------------------------
 #P opt=(calcfc, noeigentest, tight) b3lyp/cbsb7 scf=(tight, direct) in
 tegral=(grid=ultrafine, Acc2E=12) scf=xqc iop(2/9=2000)
 ----------------------------------------------------------------------

 ----
 name
 ----
 Symbolic Z-matrix:
 Charge =  0 Multiplicity = 1

 SCF Done:  E(RB3LYP) =  -1.17957105046     A.U. after    6 cycles

  Exact polarizability:   0.000   0.000   0.000   0.000   0.000   0.000
 Approx polarizability:   1.162   0.000   1.162   0.000   0.000   8.199

 SCF Done:  E(RB3LYP) =  -1.17957105545     A.U. after    4 cycles
 Optimization completed.
    -- Stationary point found.

                         Standard orientation:
 ---------------------------------------------------------------------
 Center     Atomic      Atomic             Coordinates (Angstroms)
 Number     Number       Type             X           Y           Z
 ---------------------------------------------------------------------
      1          1           0        0.000000    0.000000    0.372087
      2          1           0        0.000000    0.000000   -0.372087
 ---------------------------------------------------------------------

 The electronic state is 1-SGG.
 Alpha  occ. eigenvalues --   -0.43394
 Alpha virt. eigenvalues --    0.05739   0.19694   0.46982   1.08461   1.08461
 Alpha virt. eigenvalues --    1.55107   1.82672   1.82672   1.94584   2.37713
 Alpha virt. eigenvalues --    3.31098

 Mulliken charges:
               1
     1  H    0.000000
     2  H    0.000000
 Sum of Mulliken charges =   0.00000

 Dipole moment (field-independent basis, Debye):
    X=              0.0000    Y=              0.0000    Z=              0.0000  Tot=              0.0000
 Quadrupole moment (field-independent basis, Debye-Ang):
   XX=             -2.1052   YY=             -2.1052   ZZ=             -1.5483
   XY=              0.0000   XZ=              0.0000   YZ=              0.0000

 1\1\GINC-NODE084\FOpt\RB3LYP\6-311G(2d,d,p)\H2\DUMINDA\22-Mar-2019\0\\
 #P opt=(calcfc, noeigentest, tight) b3lyp/cbsb7 scf=(tight, direct) in
 tegral=(grid=ultrafine, Acc2E=12) scf=xqc iop(2/9=2000)\\name\\0,1\H,1
 .0856563211,0.086341,0.027562\H,1.8298296789,0.086341,0.027562\\Versio
 n=AS64L-G09RevD.01\State=1-SGG\HF=-1.1795711\RMSD=3.546e-12\RMSF=9.962
 e-09\Dipole=0.,0.,0.\Quadrupole=0.2760301,-0.138015,-0.138015,0.,0.,0.
 \PG=D*H [C*(H1.H1)]\\@

 Normal termination of Gaussian 09 at Fri Mar 22 11:18:15 2019.
