 Gaussian 09, Revision D.01,
 Gaussian 09:  AS64L-G09RevD.01 24-Apr-2013

 -----------------------
 #P opt=calcfc / scf=xqc
 -----------------------

 ----
 name
 ----
 Symbolic Z-matrix:
 Charge =  0 Multiplicity = 1

 SCF Done:  E(RHF) =  -109.743773715     A.U. after    9 cycles

  Exact polarizability:   0.000   0.000   0.000   0.000   0.000   0.000
 Approx polarizability:   7.322   0.000   6.120  -1.247   0.000   5.589

 SCF Done:  E(RHF) =  -109.748006751     A.U. after    9 cycles
 SCF Done:  E(RHF) =  -109.748049853     A.U. after    8 cycles
 SCF Done:  E(RHF) =  -109.748049740     A.U. after    8 cycles
 SCF Done:  E(RHF) =  -109.748056977     A.U. after    8 cycles
 Optimization completed.
    -- Stationary point found.

                         Standard orientation:
 ---------------------------------------------------------------------
 Center     Atomic      Atomic             Coordinates (Angstroms)
 Number     Number       Type             X           Y           Z
 ---------------------------------------------------------------------
      1          7           0       -0.720207   -0.085131   -0.114797
      2          7           0        0.720207   -0.085131    0.114797
      3          1           0       -1.145982   -0.286664    0.808534
      4          1           0       -1.026392    0.882581   -0.338876
      5          1           0        1.026392    0.882581    0.338876
      6          1           0        1.145982   -0.286664   -0.808534
 ---------------------------------------------------------------------

 The electronic state is 1-A.
 Alpha  occ. eigenvalues --  -15.34992 -15.34924  -1.19637  -0.95493  -0.60843
 Alpha  occ. eigenvalues --   -0.59710  -0.52833  -0.35581  -0.33988
 Alpha virt. eigenvalues --    0.57910   0.58607   0.65329   0.68971   0.73313

 Mulliken charges:
               1
     1  N   -0.303318
     2  N   -0.303318
     3  H    0.161432
     4  H    0.141887
     5  H    0.141887
     6  H    0.161432
 Sum of Mulliken charges =   0.00000

 Dipole moment (field-independent basis, Debye):
    X=              0.0000    Y=              2.2220    Z=              0.0000  Tot=              2.2220
 Quadrupole moment (field-independent basis, Debye-Ang):
   XX=            -11.7067   YY=            -11.8113   ZZ=            -12.0529
   XY=              0.0000   XZ=             -2.5501   YZ=              0.0000

 Normal termination of Gaussian 09 at Sat Feb 16 14:27:24 2019.
