 Gaussian 09, Revision D.01,
 Gaussian 09:  AS64L-G09RevD.01 24-Apr-2013

 ----------------------------------------------------------------------
 #P scf=(tight, direct) integral=(grid=ultrafine, Acc2E=12) b3lyp/6-311
 +g(3df,2p) scf=xqc iop(2/9=2000)
 ----------------------------------------------------------------------

 ----
 name
 ----
 Symbolic Z-matrix:
 Charge =  0 Multiplicity = 1

                         Standard orientation:
 ---------------------------------------------------------------------
 Center     Atomic      Atomic             Coordinates (Angstroms)
 Number     Number       Type             X           Y           Z
 ---------------------------------------------------------------------
      1          1           0        0.000000    0.000000    0.372087
      2          1           0        0.000000    0.000000   -0.372087
 ---------------------------------------------------------------------

 SCF Done:  E(RB3LYP) =  -1.18001159112     A.U. after    6 cycles

 The electronic state is 1-SGG.
 Alpha  occ. eigenvalues --   -0.43383
 Alpha virt. eigenvalues --    0.05828   0.19610   0.47390   0.49584   0.49584
 Alpha virt. eigenvalues --    0.89820   0.92571   0.92571   1.41579   2.11395
 Alpha virt. eigenvalues --    2.33508   3.37683   3.37683   3.66814   4.17870

 Mulliken charges:
               1
     1  H    0.000000
     2  H    0.000000
 Sum of Mulliken charges =   0.00000

 Dipole moment (field-independent basis, Debye):
    X=              0.0000    Y=              0.0000    Z=              0.0000  Tot=              0.0000
 Quadrupole moment (field-independent basis, Debye-Ang):
   XX=             -2.1096   YY=             -2.1096   ZZ=             -1.5354
   XY=              0.0000   XZ=              0.0000   YZ=              0.0000

 Normal termination of Gaussian 09 at Fri Mar 22 11:27:14 2019.
