 Gaussian 09, Revision D.01,
 Gaussian 09:  AS64L-G09RevD.01 24-Apr-2013

 ----------------------------------------
 #P ub3lyp/cbsb7 freq iop(7/33=1) scf=xqc
 ----------------------------------------

 ----
 name
 ----
 Symbolic Z-matrix:
 Charge =  0 Multiplicity = 3

                         Standard orientation:
 ---------------------------------------------------------------------
 Center     Atomic      Atomic             Coordinates (Angstroms)
 Number     Number       Type             X           Y           Z
 ---------------------------------------------------------------------
      1          7           0       -0.445162    0.671873   -0.116256
      2          1           0       -0.422514    1.140873    0.789915
      3          1           0        0.657748    0.338306   -0.273290
      4          7           0       -1.263244   -0.470370    0.024439
      5          1           0       -1.949954   -0.360956    0.761538
      6          1           0       -1.741002   -0.635339   -0.854603
      7          7           0        1.935950   -0.173903   -0.085745
      8          1           0        1.862918   -0.676085    0.819374
 ---------------------------------------------------------------------

 SCF Done:  E(UB3LYP) =  -167.134780773     A.U. after   16 cycles

 The electronic state is 3-A.
 Alpha  occ. eigenvalues --  -14.34428 -14.34210 -14.32580  -0.98039  -0.81391
 Alpha  occ. eigenvalues --   -0.75827  -0.54678  -0.48969  -0.46657  -0.37217
 Alpha  occ. eigenvalues --   -0.34313  -0.29532  -0.28340  -0.21465
 Alpha virt. eigenvalues --    0.02097   0.05650   0.07871   0.10510   0.19467
 Alpha virt. eigenvalues --    0.24011   0.32675   0.36638   0.38993   0.40821
 Alpha virt. eigenvalues --    0.43518   0.51929   0.54493   0.59712   0.64703

  Beta  occ. eigenvalues --  -14.34183 -14.33294 -14.29441  -0.96813  -0.76203
  Beta  occ. eigenvalues --   -0.71096  -0.54219  -0.48108  -0.44395  -0.34135
  Beta  occ. eigenvalues --   -0.31931  -0.21796
  Beta virt. eigenvalues --   -0.09260  -0.07874   0.02326   0.06191   0.08622
  Beta virt. eigenvalues --    0.10925   0.20238   0.24864   0.33543   0.37314
  Beta virt. eigenvalues --    0.39544   0.42079   0.44204   0.54373   0.57517

 Mulliken charges and spin densities:
               1          2
     1  N   -0.338710   0.381687
     2  H    0.193423  -0.007479
     3  H    0.257040  -0.050513
     4  N   -0.358992   0.099696
     5  H    0.208886   0.001375
     6  H    0.230500   0.004660
     7  N   -0.356981   1.615508
     8  H    0.164833  -0.044935
 Sum of Mulliken charges =   0.00000   2.00000

 Dipole moment (field-independent basis, Debye):
    X=             -3.0229    Y=             -0.1963    Z=              2.1618  Tot=              3.7216
 Quadrupole moment (field-independent basis, Debye-Ang):
   XX=            -19.6331   YY=            -20.6883   ZZ=            -17.6270
   XY=              0.3906   XZ=              1.9974   YZ=              1.9019

  Exact polarizability:  75.168  -5.130  23.825   1.027  -0.352  23.593
 Approx polarizability: 107.148  -7.368  31.536  -0.846  -0.758  31.484

 ******    1 imaginary frequencies (negative Signs) ******

                      1                      2                      3
                      A                      A                      A
 Frequencies --  -1283.3233                81.5891               166.1952
 Red. masses --      1.1127                 1.1191                 3.3443
 Frc consts  --      1.0797                 0.0044                 0.0544
 IR Inten    --   1642.3217                64.3829                 3.4506

                      4                      5                      6
                      A                      A                      A
 Frequencies --    195.7448               438.7402               657.7617
 Red. masses --      1.1335                 1.3043                 1.9501
 Frc consts  --      0.0256                 0.1479                 0.4971
 IR Inten    --     38.6920                18.5455               153.5790

                      7                      8                      9
                      A                      A                      A
 Frequencies --    747.4726               888.4239              1118.6557
 Red. masses --      1.3492                 1.5571                 3.3972
 Frc consts  --      0.4441                 0.7241                 2.5047
 IR Inten    --    109.4807                86.3785                80.6098

                     10                     11                     12
                      A                      A                      A
 Frequencies --   1163.9460              1407.7961              1461.6008
 Red. masses --      1.0746                 1.0931                 1.2105
 Frc consts  --      0.8577                 1.2764                 1.5236
 IR Inten    --     16.7221                99.3425                 9.5636

                     13                     14                     15
                      A                      A                      A
 Frequencies --   1598.3805              1675.9696              3298.5262
 Red. masses --      1.0497                 1.0636                 1.0738
 Frc consts  --      1.5801                 1.7602                 6.8837
 IR Inten    --     61.7097                 2.2832                27.5435

                     16                     17                     18
                      A                      A                      A
 Frequencies --   3461.6868              3492.3776              3589.6392
 Red. masses --      1.0742                 1.0468                 1.0987
 Frc consts  --      7.5844                 7.5222                 8.3415
 IR Inten    --      4.7525                12.1556                 6.0743

 - Thermochemistry -
 -------------------
 Temperature   298.150 Kelvin.  Pressure   1.00000 Atm.
 Atom     1 has atomic number  7 and mass  14.00307

 Molecular mass:    47.04835 amu.
 Principal axes and moments of inertia in atomic units:
                           1         2         3
     Eigenvalues --    54.37101 326.72501 360.17007
           X            0.99993   0.00316   0.01147
           Y           -0.00379   0.99846   0.05531
           Z           -0.01127  -0.05535   0.99840
 This molecule is an asymmetric top.
 Rotational symmetry number  1.
 Rotational temperatures (Kelvin)      1.59301     0.26510     0.24048
 Rotational constants (GHZ):          33.19308     5.52373     5.01080
    1 imaginary frequencies ignored.
 Zero-point vibrational energy     152191.9 (Joules/Mol)
                                   36.37475 (Kcal/Mol)
 Warning -- explicit consideration of   4 degrees of freedom as
           vibrations may cause significant error
 Vibrational temperatures:    117.39   239.12   281.63   631.25   946.37
          (Kelvin)           1075.45  1278.24  1609.49  1674.66  2025.50
                             2102.91  2299.71  2411.34  4745.84  4980.59
                             5024.75  5164.68

 Zero-point correction=                           0.057967 (Hartree/Particle)
 Thermal correction to Energy=                    0.063370
 Thermal correction to Enthalpy=                  0.064314
 Thermal correction to Gibbs Free Energy=         0.029500
 Sum of electronic and zero-point Energies=           -167.076814
 Sum of electronic and thermal Energies=              -167.071411
 Sum of electronic and thermal Enthalpies=            -167.070467
 Sum of electronic and thermal Free Energies=         -167.105281

                     E (Thermal)             CV                S
                      KCal/Mol        Cal/Mol-Kelvin    Cal/Mol-Kelvin
 Total                   39.765             15.984             73.273
 Electronic               0.000              0.000              2.183
 Translational            0.889              2.981             37.471
 Rotational               0.889              2.981             23.374
 Vibrational             37.988             10.022             10.245
 Vibration     1          0.600              1.962              3.852
 Vibration     2          0.624              1.884              2.478
 Vibration     3          0.636              1.846              2.173
 Vibration     4          0.799              1.386              0.831

 Optimization completed.
    -- Stationary point found.
 Normal termination of Gaussian 09 at Sat Feb 16 18:38:06 2019.
