 Gaussian 09, Revision D.01,
 Gaussian 09:  AS64L-G09RevD.01 24-Apr-2013

 ---------------------------------
 #P opt=calcfc ub97d/6-31g scf=xqc
 ---------------------------------

 ----
 name
 ----
 Symbolic Z-matrix:
 Charge =  0 Multiplicity = 2

 SCF Done:  E(UB97D) =  -153.026400393     A.U. after   19 cycles

  Exact polarizability:   0.000   0.000   0.000   0.000   0.000   0.000
 Approx polarizability:  67.767  -3.260  35.604   0.000   0.000  12.678

 SCF Done:  E(UB97D) =  -153.030612910     A.U. after   16 cycles
 SCF Done:  E(UB97D) =  -153.030728385     A.U. after   11 cycles
 SCF Done:  E(UB97D) =  -153.030732432     A.U. after   10 cycles
 Optimization completed.
    -- Stationary point found.

                         Standard orientation:
 ---------------------------------------------------------------------
 Center     Atomic      Atomic             Coordinates (Angstroms)
 Number     Number       Type             X           Y           Z
 ---------------------------------------------------------------------
      1          8           0       -1.224517    0.059118    0.000000
      2          6           0        1.089156   -0.483081    0.000000
      3          6           0        0.000000    0.433310    0.000000
      4          1           0        0.890471   -1.556217    0.000000
      5          1           0        2.122939   -0.131894    0.000000
      6          1           0        0.247792    1.513794    0.000000
 ---------------------------------------------------------------------

 The electronic state is 2-A".
 Alpha  occ. eigenvalues --  -18.77832  -9.99777  -9.95836  -0.95933  -0.70210
 Alpha  occ. eigenvalues --   -0.53079  -0.44885  -0.40125  -0.36048  -0.35986
 Alpha  occ. eigenvalues --   -0.23218  -0.21863
 Alpha virt. eigenvalues --   -0.03397   0.08289   0.09654   0.13461   0.23232
 Alpha virt. eigenvalues --    0.26363   0.48112   0.50856   0.55811   0.58124
 Alpha virt. eigenvalues --    0.59777   0.60619   0.77538   0.83045   0.86333

  Beta  occ. eigenvalues --  -18.77246  -9.99847  -9.95532  -0.94151  -0.67592
  Beta  occ. eigenvalues --   -0.52216  -0.43964  -0.39055  -0.34930  -0.33345
  Beta  occ. eigenvalues --   -0.20446
  Beta virt. eigenvalues --   -0.16895  -0.00750   0.09079   0.10467   0.14010
  Beta virt. eigenvalues --    0.23622   0.26965   0.49547   0.51517   0.56710
  Beta virt. eigenvalues --    0.58332   0.59865   0.60913   0.78262   0.83273

 Mulliken charges and spin densities:
               1          2
     1  O   -0.381531   0.411906
     2  C   -0.245149   0.828514
     3  C    0.165954  -0.152770
     4  H    0.177882  -0.044309
     5  H    0.159466  -0.043974
     6  H    0.123378   0.000632
 Sum of Mulliken charges =   0.00000   1.00000

 Dipole moment (field-independent basis, Debye):
    X=              3.0379    Y=              0.0599    Z=              0.0000  Tot=              3.0385
 Quadrupole moment (field-independent basis, Debye-Ang):
   XX=            -19.3675   YY=            -16.1648   ZZ=            -18.0324
   XY=             -0.3088   XZ=              0.0000   YZ=              0.0000

 Normal termination of Gaussian 09 at Sat Feb 16 13:47:35 2019.
