 Gaussian 09, Revision D.01,
 Gaussian 09:  AS64L-G09RevD.01 24-Apr-2013

 ---------------------------------------
 #P b3lyp/cbsb7 freq iop(7/33=1) scf=xqc
 ---------------------------------------

 ----
 name
 ----
 Symbolic Z-matrix:
 Charge =  0 Multiplicity = 1

                         Standard orientation:
 ---------------------------------------------------------------------
 Center     Atomic      Atomic             Coordinates (Angstroms)
 Number     Number       Type             X           Y           Z
 ---------------------------------------------------------------------
      1          6           0       -1.209178   -0.293818    0.000000
      2          6           0        0.085174    0.465078    0.000000
      3          6           0        1.296980   -0.081531    0.000000
      4          1           0       -1.041797   -1.373439    0.000000
      5          1           0       -1.813346   -0.041252   -0.878495
      6          1           0       -1.813346   -0.041252    0.878495
      7          1           0        0.000000    1.550623    0.000000
      8          1           0        2.195056    0.525809    0.000000
      9          1           0        1.435578   -1.158864    0.000000
 ---------------------------------------------------------------------

 SCF Done:  E(RB3LYP) =  -117.944057474     A.U. after   12 cycles

 The electronic state is 1-A'.
 Alpha  occ. eigenvalues --  -10.17343 -10.16663 -10.15774  -0.78778  -0.68728
 Alpha  occ. eigenvalues --   -0.55531  -0.46889  -0.42407  -0.41487  -0.37486
 Alpha  occ. eigenvalues --   -0.34768  -0.25988
 Alpha virt. eigenvalues --    0.01452   0.05326   0.07749   0.08679   0.11742
 Alpha virt. eigenvalues --    0.12705   0.13995   0.23340   0.29520   0.30985
 Alpha virt. eigenvalues --    0.32301   0.33612   0.38067   0.42402   0.43780

 Mulliken charges:
               1
     1  C   -0.277270
     2  C   -0.154237
     3  C   -0.205416
     4  H    0.106770
     5  H    0.115713
     6  H    0.115713
     7  H    0.097986
     8  H    0.104174
     9  H    0.096569
 Sum of Mulliken charges =   0.00000

 Dipole moment (field-independent basis, Debye):
    X=             -0.3789    Y=              0.0404    Z=              0.0000  Tot=              0.3810
 Quadrupole moment (field-independent basis, Debye-Ang):
   XX=            -19.2808   YY=            -19.0852   ZZ=            -21.8185
   XY=             -0.1570   XZ=              0.0000   YZ=              0.0000

  Exact polarizability:  47.504  -2.864  33.523   0.000   0.000  23.095
 Approx polarizability:  65.566  -8.680  45.912   0.000   0.000  31.676

                      1                      2                      3
                     A"                     A'                     A"
 Frequencies --    204.7504               426.5698               591.3354
 Red. masses --      1.1603                 1.9531                 1.1957
 Frc consts  --      0.0287                 0.2094                 0.2463
 IR Inten    --      0.4729                 1.0148                13.0369

                      4                      5                      6
                     A'                     A"                     A'
 Frequencies --    923.8732               940.6091               949.0057
 Red. masses --      2.4764                 1.3273                 1.1504
 Frc consts  --      1.2454                 0.6919                 0.6104
 IR Inten    --      2.7708                45.2982                 3.9078

                      7                      8                      9
                     A"                     A"                     A'
 Frequencies --   1029.6336              1071.2588              1189.4209
 Red. masses --      1.0518                 1.5480                 1.8074
 Frc consts  --      0.6570                 1.0467                 1.5066
 IR Inten    --     12.4767                 1.7835                 0.4335

                     10                     11                     12
                     A'                     A'                     A'
 Frequencies --   1328.4666              1409.6827              1449.1871
 Red. masses --      1.2388                 1.2124                 1.2052
 Frc consts  --      1.2881                 1.4195                 1.4913
 IR Inten    --      0.0937                 2.1332                 0.7975

                     13                     14                     15
                     A"                     A'                     A'
 Frequencies --   1481.5383              1495.0984              1713.4502
 Red. masses --      1.0442                 1.0572                 4.4780
 Frc consts  --      1.3504                 1.3924                 7.7460
 IR Inten    --      8.1247                14.8479                13.3480

                     16                     17                     18
                     A'                     A"                     A'
 Frequencies --   3013.1454              3056.7627              3092.0754
 Red. masses --      1.0367                 1.0992                 1.0983
 Frc consts  --      5.5458                 6.0512                 6.1869
 IR Inten    --     26.0004                25.4614                10.9501

                     19                     20                     21
                     A'                     A'                     A'
 Frequencies --   3120.1478              3127.3622              3207.5156
 Red. masses --      1.0700                 1.0815                 1.1149
 Frc consts  --      6.1374                 6.2320                 6.7580
 IR Inten    --     34.7274                 5.4884                22.4508

 - Thermochemistry -
 -------------------
 Temperature   298.150 Kelvin.  Pressure   1.00000 Atm.
 Atom     1 has atomic number  6 and mass  12.00000

 Molecular mass:    42.04695 amu.
 Principal axes and moments of inertia in atomic units:
                           1         2         3
     Eigenvalues --    38.36868 194.54808 221.80656
           X            0.99455  -0.10429   0.00000
           Y            0.10429   0.99455   0.00000
           Z            0.00000   0.00000   1.00000
 This molecule is an asymmetric top.
 Rotational symmetry number  1.
 Rotational temperatures (Kelvin)      2.25741     0.44521     0.39049
 Rotational constants (GHZ):          47.03683     9.27658     8.13655
 Zero-point vibrational energy     208275.2 (Joules/Mol)
                                   49.77896 (Kcal/Mol)
 Warning -- explicit consideration of   3 degrees of freedom as
           vibrations may cause significant error
 Vibrational temperatures:    294.59   613.74   850.80  1329.25  1353.33
          (Kelvin)           1365.41  1481.41  1541.30  1711.31  1911.36
                             2028.22  2085.05  2131.60  2151.11  2465.27
                             4335.24  4397.99  4448.80  4489.19  4499.57
                             4614.89

 Zero-point correction=                           0.079328 (Hartree/Particle)
 Thermal correction to Energy=                    0.083417
 Thermal correction to Enthalpy=                  0.084361
 Thermal correction to Gibbs Free Energy=         0.054317
 Sum of electronic and zero-point Energies=           -117.864730
 Sum of electronic and thermal Energies=              -117.860640
 Sum of electronic and thermal Enthalpies=            -117.859696
 Sum of electronic and thermal Free Energies=         -117.889741

                     E (Thermal)             CV                S
                      KCal/Mol        Cal/Mol-Kelvin    Cal/Mol-Kelvin
 Total                   52.345             12.991             63.234
 Electronic               0.000              0.000              0.000
 Translational            0.889              2.981             37.136
 Rotational               0.889              2.981             22.031
 Vibrational             50.568              7.029              4.067
 Vibration     1          0.640              1.833              2.090
 Vibration     2          0.788              1.412              0.870
 Vibration     3          0.949              1.050              0.465

 Normal termination of Gaussian 09 at Sat Feb 16 14:05:16 2019.
