 Gaussian 09, Revision D.01,
 Gaussian 09:  AS64L-G09RevD.01 24-Apr-2013

 --------------------------------
 #P opt=calcfc b97d/6-31g scf=xqc
 --------------------------------

 ----
 name
 ----
 Symbolic Z-matrix:
 Charge =  0 Multiplicity = 1

 SCF Done:  E(RB97D) =  -111.737171315     A.U. after   10 cycles

  Exact polarizability:   0.000   0.000   0.000   0.000   0.000   0.000
 Approx polarizability:  12.415   6.752  23.215   0.000   0.000  23.278

 SCF Done:  E(RB97D) =  -111.742500554     A.U. after   12 cycles
 SCF Done:  E(RB97D) =  -111.742495715     A.U. after   11 cycles
 SCF Done:  E(RB97D) =  -111.742591746     A.U. after    9 cycles
 SCF Done:  E(RB97D) =  -111.742801668     A.U. after    9 cycles
 SCF Done:  E(RB97D) =  -111.742844531     A.U. after   10 cycles
 SCF Done:  E(RB97D) =  -111.742846317     A.U. after   10 cycles
 SCF Done:  E(RB97D) =  -111.742846472     A.U. after    6 cycles
 SCF Done:  E(RB97D) =  -111.742846507     A.U. after    6 cycles
 Optimization completed.
    -- Stationary point found.

                         Standard orientation:
 ---------------------------------------------------------------------
 Center     Atomic      Atomic             Coordinates (Angstroms)
 Number     Number       Type             X           Y           Z
 ---------------------------------------------------------------------
      1          7           0        0.000000    0.765476   -0.000059
      2          7           0        0.000000   -0.765476   -0.000059
      3          1           0        0.572026    1.012795    0.820480
      4          1           0        0.572819    1.012732   -0.820065
      5          1           0       -0.572819   -1.012732   -0.820065
      6          1           0       -0.572026   -1.012795    0.820480
 ---------------------------------------------------------------------

 The electronic state is 1-A.
 Alpha  occ. eigenvalues --  -14.01268 -14.01261  -0.85465  -0.69389  -0.46268
 Alpha  occ. eigenvalues --   -0.38693  -0.37053  -0.27201  -0.14276
 Alpha virt. eigenvalues --    0.05155   0.05799   0.12109   0.13338   0.14225
 Alpha virt. eigenvalues --    0.63892   0.65206   0.70357   0.72133   0.72292
 Alpha virt. eigenvalues --    0.79079   0.87750   0.88446   0.90319   0.90862

 Mulliken charges:
               1
     1  N   -0.579736
     2  N   -0.579736
     3  H    0.289848
     4  H    0.289888
     5  H    0.289888
     6  H    0.289848
 Sum of Mulliken charges =   0.00000

 Dipole moment (field-independent basis, Debye):
    X=              0.0000    Y=              0.0000    Z=              0.0019  Tot=              0.0019
 Quadrupole moment (field-independent basis, Debye-Ang):
   XX=            -13.9011   YY=            -13.9547   ZZ=            -10.3630
   XY=              4.8012   XZ=              0.0000   YZ=              0.0000

 Normal termination of Gaussian 09 at Sat Feb 16 13:48:04 2019.
