 Gaussian 09, Revision D.01,
 Gaussian 09:  AS64L-G09RevD.01 24-Apr-2013

 ----------------------------------------
 #P ub3lyp/cbsb7 freq iop(7/33=1) scf=xqc
 ----------------------------------------

 ----
 name
 ----
 Symbolic Z-matrix:
 Charge =  0 Multiplicity = 2

                         Standard orientation:
 ---------------------------------------------------------------------
 Center     Atomic      Atomic             Coordinates (Angstroms)
 Number     Number       Type             X           Y           Z
 ---------------------------------------------------------------------
      1          8           0        0.000000    0.000000    0.108350
      2          1           0        0.000000    0.000000   -0.866798
 ---------------------------------------------------------------------

 SCF Done:  E(UB3LYP) =  -75.7545273576     A.U. after   12 cycles

 Unable to determine electronic state:  partially filled degenerate orbitals.
 Alpha  occ. eigenvalues --  -19.17855  -1.01091  -0.47045  -0.40876  -0.33537
 Alpha virt. eigenvalues --    0.03359   0.37071   0.70003   0.74368   0.75853
 Alpha virt. eigenvalues --    0.99686   1.30992   1.32771   1.90899   2.33245
 Alpha virt. eigenvalues --    2.74992   2.75046   3.03549   3.09053   3.66979

  Beta  occ. eigenvalues --  -19.15296  -0.94074  -0.44418  -0.30876
  Beta virt. eigenvalues --   -0.16094   0.04096   0.37817   0.75754   0.77308
  Beta virt. eigenvalues --    0.78753   1.03195   1.32579   1.32616   1.91805
  Beta virt. eigenvalues --    2.33606   2.83368   2.84479   3.10372   3.11501

 Mulliken charges and spin densities:
               1          2
     1  O   -0.246607   1.026726
     2  H    0.246607  -0.026726
 Sum of Mulliken charges =   0.00000   1.00000

 Dipole moment (field-independent basis, Debye):
    X=              0.0000    Y=              0.0000    Z=             -1.7594  Tot=              1.7594
 Quadrupole moment (field-independent basis, Debye-Ang):
   XX=             -6.4718   YY=             -5.2970   ZZ=             -4.5088
   XY=              0.0000   XZ=              0.0000   YZ=              0.0000

  Exact polarizability:   2.782   0.000   2.913   0.000   0.000   6.410
 Approx polarizability:   2.799   0.000   3.134   0.000   0.000   7.912

                      1
                     SG
 Frequencies --   3705.5206
 Red. masses --      1.0671
 Frc consts  --      8.6328
 IR Inten    --      5.6736

 - Thermochemistry -
 -------------------
 Temperature   298.150 Kelvin.  Pressure   1.00000 Atm.
 Atom     1 has atomic number  8 and mass  15.99491

 Molecular mass:    17.00274 amu.
 Principal axes and moments of inertia in atomic units:
                           1         2         3
     Eigenvalues --     0.00000   3.21949   3.21949
           X            0.00000   0.00000   1.00000
           Y            0.00000   1.00000   0.00000
           Z            1.00000   0.00000   0.00000
 This molecule is a prolate symmetric top.
 Rotational symmetry number  1.
 Rotational temperature (Kelvin)     26.90297
 Rotational constant (GHZ):         560.567562
 Zero-point vibrational energy      22163.9 (Joules/Mol)
                                    5.29731 (Kcal/Mol)
 Vibrational temperatures:   5331.41
          (Kelvin)

 Zero-point correction=                           0.008442 (Hartree/Particle)
 Thermal correction to Energy=                    0.010802
 Thermal correction to Enthalpy=                  0.011746
 Thermal correction to Gibbs Free Energy=        -0.008485
 Sum of electronic and zero-point Energies=            -75.746086
 Sum of electronic and thermal Energies=               -75.743725
 Sum of electronic and thermal Enthalpies=             -75.742781
 Sum of electronic and thermal Free Energies=          -75.763013

                     E (Thermal)             CV                S
                      KCal/Mol        Cal/Mol-Kelvin    Cal/Mol-Kelvin
 Total                    6.779              4.968             42.581
 Electronic               0.000              0.000              1.377
 Translational            0.889              2.981             34.437
 Rotational               0.592              1.987              6.767
 Vibrational              5.297              0.000              0.000

 Optimization completed.
    -- Stationary point found.
 Normal termination of Gaussian 09 at Sat Feb 16 13:49:43 2019.
