 Gaussian 09, Revision D.01,
 Gaussian 09:  AS64L-G09RevD.01 24-Apr-2013

 --------------------------------------------
 #P opt=(noeigentest, calcfc) cbs-qb3 scf=xqc
 --------------------------------------------

 ----
 name
 ----
 Symbolic Z-matrix:
 Charge =  0 Multiplicity = 1

 SCF Done:  E(RB3LYP) =  -111.895776198     A.U. after   10 cycles
 SCF Done:  E(RB3LYP) =  -111.897580069     A.U. after   11 cycles
 SCF Done:  E(RB3LYP) =  -111.897630200     A.U. after   11 cycles
 SCF Done:  E(RB3LYP) =  -111.897631612     A.U. after   10 cycles
 SCF Done:  E(RB3LYP) =  -111.897635905     A.U. after    9 cycles
 SCF Done:  E(RB3LYP) =  -111.897638369     A.U. after    8 cycles
 SCF Done:  E(RB3LYP) =  -111.897638497     A.U. after    7 cycles
 SCF Done:  E(RB3LYP) =  -111.897638521     A.U. after    7 cycles
 Optimization completed.
    -- Stationary point found.
 Normal termination of Gaussian 09 at Sat Feb 16 13:51:19 2019.

 ---------------------------------------------------------
 #P Geom=AllCheck Guess=TCheck SCRF=Check B3LYP/CBSB7 Freq
 ---------------------------------------------------------

 Structure from the checkpoint file:  "check.chk"
 ----
 name
 ----
 Charge =  0 Multiplicity = 1

 SCF Done:  E(RB3LYP) =  -111.897638521     A.U. after    1 cycles

  Exact polarizability:  14.229   3.465  19.345   0.000   0.000  17.722
 Approx polarizability:  18.012   4.064  24.267   0.000   0.000  23.682

                      1                      2                      3
                      A                      A                      B
 Frequencies --     79.2727               942.2029              1060.5835
 Red. masses --      1.0462                 9.9867                 1.1361
 Frc consts  --      0.0039                 5.2235                 0.7529
 IR Inten    --    125.6931                 0.0000               185.4019

                      4                      5                      6
                      A                      A                      B
 Frequencies --   1113.4573              1244.8407              1485.3173
 Red. masses --      1.0131                 1.2644                 1.1874
 Frc consts  --      0.7400                 1.1544                 1.5434
 IR Inten    --      1.5787                 0.0002                 0.0000

                      7                      8                      9
                      B                      A                      A
 Frequencies --   1636.9133              1696.3756              3424.2303
 Red. masses --      1.0948                 1.0308                 1.0511
 Frc consts  --      1.7283                 1.7478                 7.2614
 IR Inten    --     52.2685                 0.0001                 0.0000

                     10                     11                     12
                      B                      B                      A
 Frequencies --   3442.5130              3491.2667              3512.7855
 Red. masses --      1.0512                 1.0931                 1.0894
 Frc consts  --      7.3395                 7.8499                 7.9206
 IR Inten    --      2.3699                 0.0000                 0.7583

 - Thermochemistry -
 -------------------
 Temperature   298.150 Kelvin.  Pressure   1.00000 Atm.
 Atom     1 has atomic number  7 and mass  14.00307

 Molecular mass:    32.03745 amu.
 Principal axes and moments of inertia in atomic units:
                           1         2         3
     Eigenvalues --    13.04014  74.29141  79.45875
           X            0.12712   0.00000   0.99189
           Y            0.99189   0.00000  -0.12712
           Z            0.00000   1.00000   0.00000
 This molecule is an asymmetric top.
 Rotational symmetry number  2.
 Rotational temperatures (Kelvin)      6.64209     1.16587     1.09005
 Rotational constants (GHZ):         138.39896    24.29273    22.71293
 Zero-point vibrational energy     138346.7 (Joules/Mol)
                                   33.06565 (Kcal/Mol)
 Warning -- explicit consideration of   1 degrees of freedom as
           vibrations may cause significant error
 Vibrational temperatures:    114.06  1355.62  1525.94  1602.01  1791.05
          (Kelvin)           2137.04  2355.15  2440.70  4926.70  4953.00
                             5023.15  5054.11

 Zero-point correction=                           0.052693 (Hartree/Particle)
 Thermal correction to Energy=                    0.056424
 Thermal correction to Enthalpy=                  0.057368
 Thermal correction to Gibbs Free Energy=         0.029740
 Sum of electronic and zero-point Energies=           -111.844945
 Sum of electronic and thermal Energies=              -111.841215
 Sum of electronic and thermal Enthalpies=            -111.840270
 Sum of electronic and thermal Free Energies=         -111.867898

                     E (Thermal)             CV                S
                      KCal/Mol        Cal/Mol-Kelvin    Cal/Mol-Kelvin
 Total                   35.407              9.293             58.147
 Electronic               0.000              0.000              0.000
 Translational            0.889              2.981             36.325
 Rotational               0.889              2.981             17.605
 Vibrational             33.629              3.332              4.218
 Vibration     1          0.600              1.963              3.909

 Optimization completed.
    -- Stationary point found.
 Normal termination of Gaussian 09 at Sat Feb 16 13:51:42 2019.

 -----------------------------------------------------------
 #P Geom=AllCheck Guess=TCheck SCRF=Check CCSD(T)/6-31+G(d')
 -----------------------------------------------------------

 Structure from the checkpoint file:  "check.chk"
 ----
 name
 ----
 Charge =  0 Multiplicity = 1

 SCF Done:  E(RHF) =  -111.167959887     A.U. after   11 cycles
 E2 =    -0.3381908792D+00 EUMP2 =    -0.11150615076600D+03
 CCSD(T)
 CCSD(T)= -0.11153792573D+03

 1\1\GINC-NODE028\SP\RCCSD(T)-FC\6-31+(d')\H4N2\DUMINDA\16-Feb-2019\0\\
 #P Geom=AllCheck Guess=TCheck SCRF=Check CCSD(T)/6-31+G(d')\\name\\0,1
 \N,0,-0.6484072517,0.000244244,-0.3637576109\N,0,0.6484079735,-0.00106
 27733,0.363755324\H,0,-1.1484337649,-0.7960111229,0.0302160388\H,0,-1.
 1489210505,0.7944294911,0.033756058\H,0,1.1476835908,0.7964148436,-0.0
 286917361\H,0,1.149670758,-0.7940149096,-0.0352771186\\Version=AS64L-G
 09RevD.01\State=1-A\HF=-111.1679599\MP2=-111.5061508\MP3=-111.5225151\
 MP4D=-111.5307135\MP4DQ=-111.5260317\MP4SDQ=-111.5284977\CCSD=-111.529
 383\CCSD(T)=-111.5379257\RMSD=2.323e-09\PG=C02 [X(H4N2)]\\@
 Normal termination of Gaussian 09 at Sat Feb 16 13:57:57 2019.

 -----------------------------------------------------
 #P Geom=AllCheck Guess=TCheck SCRF=Check MP4SDQ/CBSB4
 -----------------------------------------------------

 Structure from the checkpoint file:  "check.chk"
 ----
 name
 ----
 Charge =  0 Multiplicity = 1

 SCF Done:  E(RHF) =  -111.182813861     A.U. after   10 cycles
 E2 =    -0.3653403093D+00 EUMP2 =    -0.11154815417043D+03
 Normal termination of Gaussian 09 at Sat Feb 16 13:58:24 2019.

 ----------------------------------------------------------------------
 #P Geom=AllCheck Guess=TCheck SCRF=Check MP2/CBSB3 CBSExtrap=(NMin=10,
 MinPop)
 ----------------------------------------------------------------------

 Structure from the checkpoint file:  "check.chk"
 ----
 name
 ----
 Charge =  0 Multiplicity = 1

                         Standard orientation:
 ---------------------------------------------------------------------
 Center     Atomic      Atomic             Coordinates (Angstroms)
 Number     Number       Type             X           Y           Z
 ---------------------------------------------------------------------
      1          7           0        0.000000    0.743473    0.000136
      2          7           0        0.000000   -0.743473    0.000136
      3          1           0        0.590756    0.986105    0.794744
      4          1           0        0.589061    0.986196   -0.795699
      5          1           0       -0.589061   -0.986196   -0.795699
      6          1           0       -0.590756   -0.986105    0.794744
 ---------------------------------------------------------------------

 SCF Done:  E(RHF) =  -111.215607573     A.U. after   10 cycles
 E2 =    -0.4353816197D+00 EUMP2 =    -0.11165098919266D+03
 E2(CBS)=      -0.478254 CBS-Int=       0.014353 OIii=       3.807490

 The electronic state is 1-A.
 Alpha  occ. eigenvalues --  -15.57443 -15.57405  -1.24722  -1.01802  -0.69621
 Alpha  occ. eigenvalues --   -0.58721  -0.56701  -0.54470  -0.36707
 Alpha virt. eigenvalues --    0.04796   0.06043   0.06634   0.09784   0.15788
 Alpha virt. eigenvalues --    0.19007   0.20502   0.21949   0.22698   0.25458
 Alpha virt. eigenvalues --    0.25752   0.30538   0.31043   0.31935   0.33169

 Mulliken charges:
               1
     1  N   -0.297980
     2  N   -0.297980
     3  H    0.149034
     4  H    0.148946
     5  H    0.148946
     6  H    0.149034
 Sum of Mulliken charges =   0.00000

 Dipole moment (field-independent basis, Debye):
    X=              0.0000    Y=              0.0000    Z=             -0.0036  Tot=              0.0036
 Quadrupole moment (field-independent basis, Debye-Ang):
   XX=            -13.9806   YY=            -14.4507   ZZ=            -10.6358
   XY=              4.4905   XZ=              0.0000   YZ=              0.0000

 Normal termination of Gaussian 09 at Sat Feb 16 13:59:07 2019.
