 Gaussian 09, Revision D.01,
 Gaussian 09:  AS64L-G09RevD.01 24-Apr-2013

 --------------------------------
 #P opt=calcfc b97d/6-31g scf=xqc
 --------------------------------

 ----
 name
 ----
 Symbolic Z-matrix:
 Charge =  0 Multiplicity = 1

 SCF Done:  E(RB97D) =  -117.796342902     A.U. after   13 cycles

  Exact polarizability:   0.000   0.000   0.000   0.000   0.000   0.000
 Approx polarizability:  54.760 -16.544  66.704   0.000   0.000  25.351

 SCF Done:  E(RB97D) =  -117.797145488     A.U. after   12 cycles
 SCF Done:  E(RB97D) =  -117.797146826     A.U. after    8 cycles
 Optimization completed.
    -- Stationary point found.

                         Standard orientation:
 ---------------------------------------------------------------------
 Center     Atomic      Atomic             Coordinates (Angstroms)
 Number     Number       Type             X           Y           Z
 ---------------------------------------------------------------------
      1          6           0       -1.147623    0.502265    0.000000
      2          6           0        0.000000   -0.481956    0.000000
      3          6           0        1.302822   -0.142698    0.000000
      4          1           0       -0.781288    1.541105    0.000000
      5          1           0       -1.792383    0.362917    0.886651
      6          1           0       -1.792383    0.362917   -0.886651
      7          1           0       -0.277084   -1.542613    0.000000
      8          1           0        2.094304   -0.894627    0.000000
      9          1           0        1.617644    0.904640    0.000000
 ---------------------------------------------------------------------

 The electronic state is 1-A'.
 Alpha  occ. eigenvalues --   -9.91250  -9.90374  -9.89653  -0.70753  -0.61516
 Alpha  occ. eigenvalues --   -0.49399  -0.41101  -0.36803  -0.36116  -0.32276
 Alpha  occ. eigenvalues --   -0.29876  -0.21386
 Alpha virt. eigenvalues --   -0.00281   0.09373   0.11213   0.12838   0.15066
 Alpha virt. eigenvalues --    0.15440   0.16520   0.25895   0.34661   0.49126
 Alpha virt. eigenvalues --    0.51310   0.52649   0.58971   0.61692   0.62228

 Mulliken charges:
               1
     1  C   -0.472669
     2  C   -0.057140
     3  C   -0.303695
     4  H    0.148409
     5  H    0.152924
     6  H    0.152924
     7  H    0.125301
     8  H    0.128493
     9  H    0.125454
 Sum of Mulliken charges =   0.00000

 Dipole moment (field-independent basis, Debye):
    X=             -0.3876    Y=              0.0235    Z=              0.0000  Tot=              0.3883
 Quadrupole moment (field-independent basis, Debye-Ang):
   XX=            -18.7630   YY=            -18.7588   ZZ=            -21.3744
   XY=              0.1173   XZ=              0.0000   YZ=              0.0000

 Normal termination of Gaussian 09 at Sat Feb 16 13:47:51 2019.
