 Gaussian 09, Revision D.01,
 Gaussian 09:  AS64L-G09RevD.01 24-Apr-2013

 --------------------------------------------------------------
 #P opt=(modredundant, calcfc, noeigentest) b3lyp/cbsb7 scf=xqc
 --------------------------------------------------------------

 ----
 name
 ----
 Symbolic Z-matrix:
 Charge =  0 Multiplicity = 1

 SCF Done:  E(RB3LYP) =  -117.944057474     A.U. after   12 cycles

  Exact polarizability:   0.000   0.000   0.000   0.000   0.000   0.000
 Approx polarizability:  65.566  -8.680  45.912   0.000   0.000  31.676

 SCF Done:  E(RB3LYP) =  -117.944056640     A.U. after    6 cycles
 Optimization completed.
    -- Stationary point found.
 SCF Done:  E(RB3LYP) =  -117.943020768     A.U. after   10 cycles
 SCF Done:  E(RB3LYP) =  -117.943857165     A.U. after    9 cycles
 SCF Done:  E(RB3LYP) =  -117.943864528     A.U. after    8 cycles
 Optimization completed.
 SCF Done:  E(RB3LYP) =  -117.942479250     A.U. after   10 cycles
 SCF Done:  E(RB3LYP) =  -117.943333580     A.U. after   10 cycles
 SCF Done:  E(RB3LYP) =  -117.943343160     A.U. after    8 cycles
 SCF Done:  E(RB3LYP) =  -117.941677314     A.U. after   10 cycles
 SCF Done:  E(RB3LYP) =  -117.942576545     A.U. after   10 cycles
 SCF Done:  E(RB3LYP) =  -117.942413448     A.U. after   10 cycles
 SCF Done:  E(RB3LYP) =  -117.943336949     A.U. after   10 cycles
 SCF Done:  E(RB3LYP) =  -117.943343088     A.U. after    7 cycles
 SCF Done:  E(RB3LYP) =  -117.942994172     A.U. after   10 cycles
 SCF Done:  E(RB3LYP) =  -117.943854188     A.U. after   10 cycles
 SCF Done:  E(RB3LYP) =  -117.943864275     A.U. after    7 cycles
 SCF Done:  E(RB3LYP) =  -117.943864541     A.U. after    6 cycles
    -- Stationary point found.
 SCF Done:  E(RB3LYP) =  -117.943204257     A.U. after   10 cycles
 SCF Done:  E(RB3LYP) =  -117.944040190     A.U. after   10 cycles
 SCF Done:  E(RB3LYP) =  -117.944047989     A.U. after    7 cycles
 Optimization completed.
    -- Stationary point found.

                         Standard orientation:
 ---------------------------------------------------------------------
 Center     Atomic      Atomic             Coordinates (Angstroms)
 Number     Number       Type             X           Y           Z
 ---------------------------------------------------------------------
      1          6           0       -1.233475   -0.162356   -0.000009
      2          6           0        0.134634    0.453672    0.000042
      3          6           0        1.280436   -0.220421    0.000001
      4          1           0       -1.181900   -1.253668   -0.000078
      5          1           0       -1.807305    0.153278   -0.878486
      6          1           0       -1.807445    0.153120    0.878463
      7          1           0        0.166592    1.542062   -0.000049
      8          1           0        2.238934    0.286249   -0.000044
      9          1           0        1.301551   -1.306413   -0.000009
 ---------------------------------------------------------------------

 The electronic state is 1-A.
 Alpha  occ. eigenvalues --  -10.17342 -10.16663 -10.15773  -0.78780  -0.68724
 Alpha  occ. eigenvalues --   -0.55532  -0.46893  -0.42401  -0.41484  -0.37487
 Alpha  occ. eigenvalues --   -0.34771  -0.25987
 Alpha virt. eigenvalues --    0.01451   0.05327   0.07748   0.08679   0.11742
 Alpha virt. eigenvalues --    0.12701   0.14002   0.23339   0.29518   0.30985
 Alpha virt. eigenvalues --    0.32303   0.33614   0.38067   0.42399   0.43781

 Mulliken charges:
               1
     1  C   -0.277312
     2  C   -0.154076
     3  C   -0.205475
     4  H    0.106747
     5  H    0.115697
     6  H    0.115695
     7  H    0.097976
     8  H    0.104173
     9  H    0.096575
 Sum of Mulliken charges =   0.00000

 Dipole moment (field-independent basis, Debye):
    X=             -0.3720    Y=              0.0809    Z=             -0.0001  Tot=              0.3807
 Quadrupole moment (field-independent basis, Debye-Ang):
   XX=            -19.3130   YY=            -19.0538   ZZ=            -21.8189
   XY=             -0.1328   XZ=             -0.0002   YZ=             -0.0002

 Normal termination of Gaussian 09 at Sat Feb 16 14:23:45 2019.
