 Gaussian 09, Revision D.01,
 Gaussian 09:  AS64L-G09RevD.01 24-Apr-2013

 --------------------------------
 #P opt=calcfc b97d/6-31g scf=xqc
 --------------------------------

 ----
 name
 ----
 Symbolic Z-matrix:
 Charge =  0 Multiplicity = 1

 SCF Done:  E(RB97D) =  -95.7581454083     A.U. after   12 cycles

  Exact polarizability:   0.000   0.000   0.000   0.000   0.000   0.000
 Approx polarizability:  26.630   0.000  27.086  -1.207   0.000  21.827

 SCF Done:  E(RB97D) =  -95.7612884901     A.U. after   12 cycles
 SCF Done:  E(RB97D) =  -95.7614790396     A.U. after   11 cycles
 SCF Done:  E(RB97D) =  -95.7615026261     A.U. after    8 cycles
 SCF Done:  E(RB97D) =  -95.7615041442     A.U. after    7 cycles
 Optimization completed.
    -- Stationary point found.

                         Standard orientation:
 ---------------------------------------------------------------------
 Center     Atomic      Atomic             Coordinates (Angstroms)
 Number     Number       Type             X           Y           Z
 ---------------------------------------------------------------------
      1          7           0       -0.750013    0.000000   -0.093526
      2          6           0        0.715362    0.000000    0.014737
      3          1           0        1.114923    0.887423   -0.501269
      4          1           0        1.125335    0.000000    1.051603
      5          1           0        1.114923   -0.887423   -0.501269
      6          1           0       -1.198634    0.842090    0.258597
      7          1           0       -1.198634   -0.842090    0.258597
 ---------------------------------------------------------------------

 The electronic state is 1-A.
 Alpha  occ. eigenvalues --  -13.97449  -9.92235  -0.78810  -0.59318  -0.43807
 Alpha  occ. eigenvalues --   -0.38282  -0.35172  -0.32205  -0.16036
 Alpha virt. eigenvalues --    0.06722   0.11456   0.12701   0.15353   0.16740
 Alpha virt. eigenvalues --    0.20592   0.53553   0.54713   0.57810   0.71554
 Alpha virt. eigenvalues --    0.75803   0.77764   0.82491   0.88723   0.90379

 Mulliken charges:
               1
     1  N   -0.694873
     2  C   -0.279083
     3  H    0.151773
     4  H    0.111933
     5  H    0.151773
     6  H    0.279239
     7  H    0.279239
 Sum of Mulliken charges =   0.00000

 Dipole moment (field-independent basis, Debye):
    X=              0.0442    Y=              0.0000    Z=              1.3323  Tot=              1.3330
 Quadrupole moment (field-independent basis, Debye-Ang):
   XX=            -13.0759   YY=            -12.2232   ZZ=            -15.5087
   XY=              0.0000   XZ=             -2.0492   YZ=              0.0000

 Normal termination of Gaussian 09 at Sat Feb 16 13:47:18 2019.
