 Gaussian 09, Revision D.01,
 Gaussian 09:  AS64L-G09RevD.01 24-Apr-2013

 ---------------------------------------
 #P b3lyp/cbsb7 freq iop(7/33=1) scf=xqc
 ---------------------------------------

 ----
 name
 ----
 Symbolic Z-matrix:
 Charge =  0 Multiplicity = 1

                         Standard orientation:
 ---------------------------------------------------------------------
 Center     Atomic      Atomic             Coordinates (Angstroms)
 Number     Number       Type             X           Y           Z
 ---------------------------------------------------------------------
      1          7           0       -0.050536   -0.760880    0.000000
      2          6           0       -0.050536    0.705333    0.000000
      3          1           0       -0.592245    1.065613    0.878559
      4          1           0        0.943434    1.180561    0.000000
      5          1           0       -0.592245    1.065613   -0.878559
      6          1           0        0.449012   -1.108812    0.812289
      7          1           0        0.449012   -1.108812   -0.812289
 ---------------------------------------------------------------------

 SCF Done:  E(RB3LYP) =  -95.8884439395     A.U. after   11 cycles

 The electronic state is 1-A'.
 Alpha  occ. eigenvalues --  -14.28197 -10.18279  -0.87127  -0.65834  -0.48692
 Alpha  occ. eigenvalues --   -0.43793  -0.40087  -0.36740  -0.23442
 Alpha virt. eigenvalues --    0.04196   0.07866   0.09778   0.11790   0.13934
 Alpha virt. eigenvalues --    0.21428   0.30996   0.32994   0.37564   0.37988
 Alpha virt. eigenvalues --    0.48208   0.54469   0.58438   0.58639   0.63857

 Mulliken charges:
               1
     1  N   -0.471427
     2  C   -0.205469
     3  H    0.109205
     4  H    0.084037
     5  H    0.109205
     6  H    0.187224
     7  H    0.187224
 Sum of Mulliken charges =   0.00000

 Dipole moment (field-independent basis, Debye):
    X=              1.3354    Y=              0.3324    Z=              0.0000  Tot=              1.3761
 Quadrupole moment (field-independent basis, Debye-Ang):
   XX=            -14.8847   YY=            -14.2098   ZZ=            -12.6697
   XY=             -2.1283   XZ=              0.0000   YZ=              0.0000

  Exact polarizability:  18.886  -0.884  22.958   0.000   0.000  20.951
 Approx polarizability:  24.074  -0.805  27.454   0.000   0.000  27.563

                      1                      2                      3
                     A"                     A'                     A"
 Frequencies --    319.4562               853.2708               980.7061
 Red. masses --      1.0306                 1.2427                 1.0525
 Frc consts  --      0.0620                 0.5331                 0.5964
 IR Inten    --     38.8557               164.3832                 0.0112

                      4                      5                      6
                     A'                     A'                     A"
 Frequencies --   1056.0236              1171.7675              1353.2028
 Red. masses --      3.3720                 1.3983                 1.3441
 Frc consts  --      2.2156                 1.1312                 1.4501
 IR Inten    --      8.1169                 7.1736                 0.2068

                      7                      8                      9
                     A'                     A'                     A"
 Frequencies --   1461.6186              1497.1760              1519.1119
 Red. masses --      1.1585                 1.0556                 1.0332
 Frc consts  --      1.4581                 1.3941                 1.4048
 IR Inten    --      2.2612                 7.4624                 3.4121

                     10                     11                     12
                     A'                     A'                     A'
 Frequencies --   1668.8100              2947.7715              3051.6846
 Red. masses --      1.0835                 1.0605                 1.0725
 Frc consts  --      1.7778                 5.4291                 5.8847
 IR Inten    --     22.9016               103.4314                41.5484

                     13                     14                     15
                     A"                     A'                     A"
 Frequencies --   3086.9945              3487.9026              3562.2552
 Red. masses --      1.1029                 1.0491                 1.0929
 Frc consts  --      6.1926                 7.5199                 8.1712
 IR Inten    --     38.4976                 1.5351                 0.1044

 - Thermochemistry -
 -------------------
 Temperature   298.150 Kelvin.  Pressure   1.00000 Atm.
 Atom     1 has atomic number  7 and mass  14.00307

 Molecular mass:    31.04220 amu.
 Principal axes and moments of inertia in atomic units:
                           1         2         3
     Eigenvalues --    17.45026  79.54000  82.70025
           X           -0.05840   0.00000   0.99829
           Y            0.99829   0.00000   0.05840
           Z            0.00000   1.00000   0.00000
 This molecule is an asymmetric top.
 Rotational symmetry number  1.
 Rotational temperatures (Kelvin)      4.96347     1.08893     1.04732
 Rotational constants (GHZ):         103.42203    22.68973    21.82268
 Zero-point vibrational energy     167583.4 (Joules/Mol)
                                   40.05339 (Kcal/Mol)
 Warning -- explicit consideration of   1 degrees of freedom as
           vibrations may cause significant error
 Vibrational temperatures:    459.63  1227.66  1411.02  1519.38  1685.91
          (Kelvin)           1946.95  2102.94  2154.10  2185.66  2401.04
                             4241.18  4390.69  4441.49  5018.31  5125.28

 Zero-point correction=                           0.063829 (Hartree/Particle)
 Thermal correction to Energy=                    0.067237
 Thermal correction to Enthalpy=                  0.068181
 Thermal correction to Gibbs Free Energy=         0.040919
 Sum of electronic and zero-point Energies=            -95.824615
 Sum of electronic and thermal Energies=               -95.821207
 Sum of electronic and thermal Enthalpies=             -95.820263
 Sum of electronic and thermal Free Energies=          -95.847524

                     E (Thermal)             CV                S
                      KCal/Mol        Cal/Mol-Kelvin    Cal/Mol-Kelvin
 Total                   42.192              9.505             57.378
 Electronic               0.000              0.000              0.000
 Translational            0.889              2.981             36.231
 Rotational               0.889              2.981             19.379
 Vibrational             40.415              3.543              1.767
 Vibration     1          0.705              1.636              1.313

 Optimization completed.
    -- Stationary point found.
 Normal termination of Gaussian 09 at Sat Feb 16 13:50:21 2019.
