 Gaussian 09, Revision D.01,
 Gaussian 09:  AS64L-G09RevD.01 24-Apr-2013

 --------------------------------------------
 #P opt=(noeigentest, calcfc) cbs-qb3 scf=xqc
 --------------------------------------------

 ----
 name
 ----
 Symbolic Z-matrix:
 Charge =  0 Multiplicity = 1

 SCF Done:  E(RB3LYP) =  -111.899427985     A.U. after   10 cycles
 SCF Done:  E(RB3LYP) =  -111.901504650     A.U. after   10 cycles
 SCF Done:  E(RB3LYP) =  -111.901532224     A.U. after    7 cycles
 SCF Done:  E(RB3LYP) =  -111.901533143     A.U. after    7 cycles
 SCF Done:  E(RB3LYP) =  -111.901533228     A.U. after    6 cycles
 Optimization completed.
    -- Stationary point found.
 Normal termination of Gaussian 09 at Sat Feb 16 14:29:37 2019.

 ---------------------------------------------------------
 #P Geom=AllCheck Guess=TCheck SCRF=Check B3LYP/CBSB7 Freq
 ---------------------------------------------------------

 Structure from the checkpoint file:  "check.chk"
 ----
 name
 ----
 Charge =  0 Multiplicity = 1

 SCF Done:  E(RB3LYP) =  -111.901533228     A.U. after    1 cycles

  Exact polarizability:  20.121   0.000  15.216  -1.067   0.000  15.033
 Approx polarizability:  24.541   0.000  19.710  -1.308   0.000  19.419

                      1                      2                      3
                      A                      A                      A
 Frequencies --    444.4386               817.5919               998.6519
 Red. masses --      1.0495                 1.8752                 1.1810
 Frc consts  --      0.1221                 0.7385                 0.6940
 IR Inten    --     39.3309                76.7687               148.4495

                      4                      5                      6
                      A                      A                      A
 Frequencies --   1120.1724              1304.0281              1334.4663
 Red. masses --      1.9808                 1.1742                 1.2324
 Frc consts  --      1.4644                 1.1765                 1.2931
 IR Inten    --     12.5968                 5.1201                 3.9202

                      7                      8                      9
                      A                      A                      A
 Frequencies --   1680.4941              1697.0507              3435.8667
 Red. masses --      1.0892                 1.0463                 1.0546
 Frc consts  --      1.8123                 1.7755                 7.3355
 IR Inten    --     15.2226                12.8546                23.2756

                     10                     11                     12
                      A                      A                      A
 Frequencies --   3447.9492              3548.1464              3555.5212
 Red. masses --      1.0506                 1.0924                 1.0881
 Frc consts  --      7.3589                 8.1030                 8.1043
 IR Inten    --      4.1891                 0.3412                 0.0858

 - Thermochemistry -
 -------------------
 Temperature   298.150 Kelvin.  Pressure   1.00000 Atm.
 Atom     1 has atomic number  7 and mass  14.00307

 Molecular mass:    32.03745 amu.
 Principal axes and moments of inertia in atomic units:
                           1         2         3
     Eigenvalues --    12.49906  74.37628  74.44085
           X            0.99837  -0.05711   0.00000
           Y            0.00000   0.00000   1.00000
           Z            0.05711   0.99837   0.00000
 This molecule is an asymmetric top.
 Rotational symmetry number  1.
 Rotational temperatures (Kelvin)      6.92963     1.16454     1.16353
 Rotational constants (GHZ):         144.39020    24.26501    24.24396
 Zero-point vibrational energy     139869.6 (Joules/Mol)
                                   33.42965 (Kcal/Mol)
 Warning -- explicit consideration of   1 degrees of freedom as
           vibrations may cause significant error
 Vibrational temperatures:    639.45  1176.33  1436.84  1611.68  1876.20
          (Kelvin)           1920.00  2417.85  2441.67  4943.44  4960.82
                             5104.98  5115.60

 Zero-point correction=                           0.053274 (Hartree/Particle)
 Thermal correction to Energy=                    0.056533
 Thermal correction to Enthalpy=                  0.057478
 Thermal correction to Gibbs Free Energy=         0.030671
 Sum of electronic and zero-point Energies=           -111.848260
 Sum of electronic and thermal Energies=              -111.845000
 Sum of electronic and thermal Enthalpies=            -111.844056
 Sum of electronic and thermal Free Energies=         -111.870863

                     E (Thermal)             CV                S
                      KCal/Mol        Cal/Mol-Kelvin    Cal/Mol-Kelvin
 Total                   35.475              8.953             56.420
 Electronic               0.000              0.000              0.000
 Translational            0.889              2.981             36.325
 Rotational               0.889              2.981             18.876
 Vibrational             33.698              2.992              1.219
 Vibration     1          0.804              1.373              0.813

 Optimization completed.
    -- Stationary point found.
 Normal termination of Gaussian 09 at Sat Feb 16 14:30:06 2019.

 -----------------------------------------------------------
 #P Geom=AllCheck Guess=TCheck SCRF=Check CCSD(T)/6-31+G(d')
 -----------------------------------------------------------

 Structure from the checkpoint file:  "check.chk"
 ----
 name
 ----
 Charge =  0 Multiplicity = 1

 SCF Done:  E(RHF) =  -111.174628218     A.U. after   11 cycles
 E2 =    -0.3364631242D+00 EUMP2 =    -0.11151109134217D+03
 CCSD(T)
 CCSD(T)= -0.11154197443D+03

 1\1\GINC-NODE004\SP\RCCSD(T)-FC\6-31+(d')\H4N2\DUMINDA\16-Feb-2019\0\\
 #P Geom=AllCheck Guess=TCheck SCRF=Check CCSD(T)/6-31+G(d')\\name\\0,1
 \N,0,-0.6529049646,0.0170765359,-0.3019236901\N,0,0.6170802035,0.05498
 0873,0.3659124271\H,0,-1.1314340261,-0.8216356493,0.0054238133\H,0,-1.
 2389069784,0.8125719554,-0.0573143014\H,0,0.5688388263,0.5496490073,1.
 2541811261\H,0,1.2585659394,0.5622102777,-0.232506375\\Version=AS64L-G
 09RevD.01\State=1-A\HF=-111.1746282\MP2=-111.5110913\MP3=-111.5273132\
 MP4D=-111.5351255\MP4DQ=-111.5307071\MP4SDQ=-111.5330257\CCSD=-111.533
 8164\CCSD(T)=-111.5419744\RMSD=4.789e-09\PG=C01 [X(H4N2)]\\@
 Normal termination of Gaussian 09 at Sat Feb 16 14:36:19 2019.

 -----------------------------------------------------
 #P Geom=AllCheck Guess=TCheck SCRF=Check MP4SDQ/CBSB4
 -----------------------------------------------------

 Structure from the checkpoint file:  "check.chk"
 ----
 name
 ----
 Charge =  0 Multiplicity = 1

 SCF Done:  E(RHF) =  -111.189575770     A.U. after   10 cycles
 E2 =    -0.3630596460D+00 EUMP2 =    -0.11155263541589D+03
 Normal termination of Gaussian 09 at Sat Feb 16 14:37:23 2019.

 ----------------------------------------------------------------------
 #P Geom=AllCheck Guess=TCheck SCRF=Check MP2/CBSB3 CBSExtrap=(NMin=10,
 MinPop)
 ----------------------------------------------------------------------

 Structure from the checkpoint file:  "check.chk"
 ----
 name
 ----
 Charge =  0 Multiplicity = 1

                         Standard orientation:
 ---------------------------------------------------------------------
 Center     Atomic      Atomic             Coordinates (Angstroms)
 Number     Number       Type             X           Y           Z
 ---------------------------------------------------------------------
      1          7           0        0.710683   -0.075560    0.100031
      2          7           0       -0.710683   -0.075560   -0.100031
      3          1           0        1.141024   -0.310697   -0.786765
      4          1           0        1.059034    0.839617    0.377784
      5          1           0       -1.059034    0.839617   -0.377784
      6          1           0       -1.141024   -0.310697    0.786765
 ---------------------------------------------------------------------

 SCF Done:  E(RHF) =  -111.222658787     A.U. after   10 cycles
 E2 =    -0.4331055748D+00 EUMP2 =    -0.11165576436204D+03
 E2(CBS)=      -0.475607 CBS-Int=       0.014157 OIii=       3.823370

 The electronic state is 1-A.
 Alpha  occ. eigenvalues --  -15.57009 -15.56964  -1.25442  -1.01074  -0.67704
 Alpha  occ. eigenvalues --   -0.66718  -0.60724  -0.41741  -0.41014
 Alpha virt. eigenvalues --    0.04435   0.06245   0.07345   0.07623   0.19168
 Alpha virt. eigenvalues --    0.19691   0.20918   0.21384   0.22666   0.25306
 Alpha virt. eigenvalues --    0.26644   0.28146   0.29593   0.31102   0.32978

 Mulliken charges:
               1
     1  N   -0.324259
     2  N   -0.324259
     3  H    0.175802
     4  H    0.148458
     5  H    0.148458
     6  H    0.175802
 Sum of Mulliken charges =   0.00000

 Dipole moment (field-independent basis, Debye):
    X=              0.0000    Y=              2.0743    Z=              0.0000  Tot=              2.0743
 Quadrupole moment (field-independent basis, Debye-Ang):
   XX=            -12.3525   YY=            -13.0922   ZZ=            -13.2016
   XY=              0.0000   XZ=             -2.7217   YZ=              0.0000

 Normal termination of Gaussian 09 at Sat Feb 16 14:38:11 2019.
