 Gaussian 09, Revision D.01,
 Gaussian 09:  AS64L-G09RevD.01 24-Apr-2013

 --------------------------------------------
 #P opt=(noeigentest, calcfc) cbs-qb3 scf=xqc
 --------------------------------------------

 ----
 name
 ----
 Symbolic Z-matrix:
 Charge =  0 Multiplicity = 1

 SCF Done:  E(RB3LYP) =  -95.8866143715     A.U. after   11 cycles
 SCF Done:  E(RB3LYP) =  -95.8880018992     A.U. after   11 cycles
 SCF Done:  E(RB3LYP) =  -95.8884272682     A.U. after   10 cycles
 SCF Done:  E(RB3LYP) =  -95.8884391122     A.U. after    7 cycles
 Optimization completed.
    -- Stationary point found.
 Normal termination of Gaussian 09 at Sat Feb 16 13:48:32 2019.

 ---------------------------------------------------------
 #P Geom=AllCheck Guess=TCheck SCRF=Check B3LYP/CBSB7 Freq
 ---------------------------------------------------------

 Structure from the checkpoint file:  "check.chk"
 ----
 name
 ----
 Charge =  0 Multiplicity = 1

 SCF Done:  E(RB3LYP) =  -95.8884391122     A.U. after    1 cycles

  Exact polarizability:  23.090   0.000  20.951   0.477   0.000  18.754
 Approx polarizability:  27.577   0.000  27.563   0.466   0.000  23.951

                      1                      2                      3
                      A                      A                      A
 Frequencies --    317.3296               850.9068               979.8993
 Red. masses --      1.0305                 1.2429                 1.0524
 Frc consts  --      0.0611                 0.5302                 0.5954
 IR Inten    --     38.8453               164.4080                 0.0136

                      4                      5                      6
                      A                      A                      A
 Frequencies --   1055.9678              1170.3513              1352.2793
 Red. masses --      3.3666                 1.3990                 1.3447
 Frc consts  --      2.2118                 1.1290                 1.4488
 IR Inten    --      8.1029                 7.1034                 0.2071

                      7                      8                      9
                      A                      A                      A
 Frequencies --   1461.0870              1496.9048              1518.9567
 Red. masses --      1.1596                 1.0546                 1.0331
 Frc consts  --      1.4585                 1.3923                 1.4044
 IR Inten    --      2.3070                 7.4141                 3.4180

                     10                     11                     12
                      A                      A                      A
 Frequencies --   1668.5483              2947.7048              3051.7698
 Red. masses --      1.0835                 1.0605                 1.0725
 Frc consts  --      1.7773                 5.4289                 5.8850
 IR Inten    --     22.9191               103.4514                41.5389

                     13                     14                     15
                      A                      A                      A
 Frequencies --   3087.1206              3487.7350              3562.0811
 Red. masses --      1.1029                 1.0492                 1.0929
 Frc consts  --      6.1931                 7.5193                 8.1704
 IR Inten    --     38.4904                 1.5334                 0.1049

 - Thermochemistry -
 -------------------
 Temperature   298.150 Kelvin.  Pressure   1.00000 Atm.
 Atom     1 has atomic number  7 and mass  14.00307

 Molecular mass:    31.04220 amu.
 Principal axes and moments of inertia in atomic units:
                           1         2         3
     Eigenvalues --    17.45025  79.54004  82.70028
           X            0.99927   0.00000   0.03814
           Y            0.00000   1.00000   0.00000
           Z           -0.03814   0.00000   0.99927
 This molecule is an asymmetric top.
 Rotational symmetry number  1.
 Rotational temperatures (Kelvin)      4.96347     1.08893     1.04732
 Rotational constants (GHZ):         103.42207    22.68972    21.82267
 Zero-point vibrational energy     167528.9 (Joules/Mol)
                                   40.04036 (Kcal/Mol)
 Warning -- explicit consideration of   1 degrees of freedom as
           vibrations may cause significant error
 Vibrational temperatures:    456.57  1224.26  1409.85  1519.30  1683.87
          (Kelvin)           1945.63  2102.18  2153.71  2185.44  2400.67
                             4241.08  4390.81  4441.67  5018.07  5125.03

 Zero-point correction=                           0.063808 (Hartree/Particle)
 Thermal correction to Energy=                    0.067220
 Thermal correction to Enthalpy=                  0.068164
 Thermal correction to Gibbs Free Energy=         0.040896
 Sum of electronic and zero-point Energies=            -95.824631
 Sum of electronic and thermal Energies=               -95.821219
 Sum of electronic and thermal Enthalpies=             -95.820275
 Sum of electronic and thermal Free Energies=          -95.847543

                     E (Thermal)             CV                S
                      KCal/Mol        Cal/Mol-Kelvin    Cal/Mol-Kelvin
 Total                   42.181              9.515             57.391
 Electronic               0.000              0.000              0.000
 Translational            0.889              2.981             36.231
 Rotational               0.889              2.981             19.379
 Vibrational             40.404              3.553              1.781
 Vibration     1          0.704              1.640              1.324

 Optimization completed.
    -- Stationary point found.
 Normal termination of Gaussian 09 at Sat Feb 16 13:48:45 2019.

 -----------------------------------------------------------
 #P Geom=AllCheck Guess=TCheck SCRF=Check CCSD(T)/6-31+G(d')
 -----------------------------------------------------------

 Structure from the checkpoint file:  "check.chk"
 ----
 name
 ----
 Charge =  0 Multiplicity = 1

 SCF Done:  E(RHF) =  -95.2129894026     A.U. after   11 cycles
 E2 =    -0.3035475842D+00 EUMP2 =    -0.95516536986821D+02
 CCSD(T)
 CCSD(T)= -0.95551758628D+02
 5.5410616\MP4SDQ=-95.5432365\CCSD=-95.5441479\CCSD(T)=-95.5517586\RMSD
 Normal termination of Gaussian 09 at Sat Feb 16 13:49:14 2019.

 -----------------------------------------------------
 #P Geom=AllCheck Guess=TCheck SCRF=Check MP4SDQ/CBSB4
 -----------------------------------------------------

 Structure from the checkpoint file:  "check.chk"
 ----
 name
 ----
 Charge =  0 Multiplicity = 1

 SCF Done:  E(RHF) =  -95.2249115636     A.U. after   10 cycles
 E2 =    -0.3369371615D+00 EUMP2 =    -0.95561848725124D+02
 Normal termination of Gaussian 09 at Sat Feb 16 13:49:20 2019.

 ----------------------------------------------------------------------
 #P Geom=AllCheck Guess=TCheck SCRF=Check MP2/CBSB3 CBSExtrap=(NMin=10,
 MinPop)
 ----------------------------------------------------------------------

 Structure from the checkpoint file:  "check.chk"
 ----
 name
 ----
 Charge =  0 Multiplicity = 1

                         Standard orientation:
 ---------------------------------------------------------------------
 Center     Atomic      Atomic             Coordinates (Angstroms)
 Number     Number       Type             X           Y           Z
 ---------------------------------------------------------------------
      1          7           0        0.752460    0.000000   -0.123675
      2          6           0       -0.706919    0.000000    0.017718
      3          1           0       -1.117759   -0.878559   -0.486724
      4          1           0       -1.084080    0.000000    1.052883
      5          1           0       -1.117759    0.878559   -0.486724
      6          1           0        1.146945   -0.812289    0.339992
      7          1           0        1.146945    0.812289    0.339992
 ---------------------------------------------------------------------

 SCF Done:  E(RHF) =  -95.2515046025     A.U. after   10 cycles
 E2 =    -0.3964255058D+00 EUMP2 =    -0.95647930108297D+02
 E2(CBS)=      -0.435531 CBS-Int=       0.013666 OIii=       3.724314

 The electronic state is 1-A.
 Alpha  occ. eigenvalues --  -15.53957 -11.24149  -1.16885  -0.89487  -0.66133
 Alpha  occ. eigenvalues --   -0.60258  -0.55531  -0.51610  -0.39245
 Alpha virt. eigenvalues --    0.04020   0.06179   0.06637   0.07571   0.09834
 Alpha virt. eigenvalues --    0.12612   0.15972   0.16080   0.18513   0.21455
 Alpha virt. eigenvalues --    0.24004   0.24920   0.29576   0.29933   0.30987

 Mulliken charges:
               1
     1  N   -0.337878
     2  C   -0.113427
     3  H    0.057432
     4  H    0.034503
     5  H    0.057432
     6  H    0.150969
     7  H    0.150969
 Sum of Mulliken charges =   0.00000

 Dipole moment (field-independent basis, Debye):
    X=             -0.3134    Y=              0.0000    Z=              1.4155  Tot=              1.4498
 Quadrupole moment (field-independent basis, Debye-Ang):
   XX=            -14.0434   YY=            -12.6278   ZZ=            -15.4963
   XY=              0.0000   XZ=              2.1312   YZ=              0.0000

 Normal termination of Gaussian 09 at Sat Feb 16 13:49:32 2019.
