 Gaussian 09, Revision D.01,
 Gaussian 09:  AS64L-G09RevD.01 24-Apr-2013

 ---------------------------------
 #P opt=calcfc ub97d/6-31g scf=xqc
 ---------------------------------

 ----
 name
 ----
 Symbolic Z-matrix:
 Charge =  0 Multiplicity = 2

 SCF Done:  E(UB97D) =  -153.021404249     A.U. after   19 cycles

  Exact polarizability:   0.000   0.000   0.000   0.000   0.000   0.000
 Approx polarizability:  73.529  -3.572  32.818   0.000   0.000  12.340

 SCF Done:  E(UB97D) =  -153.030429193     A.U. after   15 cycles
 SCF Done:  E(UB97D) =  -153.030716236     A.U. after   14 cycles
 SCF Done:  E(UB97D) =  -153.030731638     A.U. after   10 cycles
 SCF Done:  E(UB97D) =  -153.030732436     A.U. after   10 cycles
 Optimization completed.
    -- Stationary point found.

                         Standard orientation:
 ---------------------------------------------------------------------
 Center     Atomic      Atomic             Coordinates (Angstroms)
 Number     Number       Type             X           Y           Z
 ---------------------------------------------------------------------
      1          8           0        1.224525    0.058743    0.000000
      2          6           0       -1.089197   -0.482825    0.000000
      3          6           0        0.000000    0.433406    0.000000
      4          1           0       -0.890539   -1.555898    0.000000
      5          1           0       -2.122824   -0.131430    0.000000
      6          1           0       -0.247652    1.513906    0.000000
 ---------------------------------------------------------------------

 The electronic state is 2-A".
 Alpha  occ. eigenvalues --  -18.77833  -9.99776  -9.95834  -0.95926  -0.70211
 Alpha  occ. eigenvalues --   -0.53080  -0.44885  -0.40125  -0.36045  -0.35985
 Alpha  occ. eigenvalues --   -0.23218  -0.21864
 Alpha virt. eigenvalues --   -0.03399   0.08291   0.09656   0.13461   0.23227
 Alpha virt. eigenvalues --    0.26364   0.48113   0.50854   0.55812   0.58122
 Alpha virt. eigenvalues --    0.59778   0.60613   0.77541   0.83046   0.86337

  Beta  occ. eigenvalues --  -18.77246  -9.99846  -9.95530  -0.94143  -0.67594
  Beta  occ. eigenvalues --   -0.52217  -0.43965  -0.39055  -0.34929  -0.33341
  Beta  occ. eigenvalues --   -0.20445
  Beta virt. eigenvalues --   -0.16895  -0.00752   0.09080   0.10470   0.14010
  Beta virt. eigenvalues --    0.23618   0.26966   0.49547   0.51515   0.56711
  Beta virt. eigenvalues --    0.58330   0.59865   0.60908   0.78264   0.83274

 Mulliken charges and spin densities:
               1          2
     1  O   -0.381583   0.412161
     2  C   -0.245128   0.828306
     3  C    0.165942  -0.152840
     4  H    0.177896  -0.044299
     5  H    0.159454  -0.043964
     6  H    0.123419   0.000636
 Sum of Mulliken charges =   0.00000   1.00000

 Dipole moment (field-independent basis, Debye):
    X=             -3.0380    Y=              0.0609    Z=              0.0000  Tot=              3.0386
 Quadrupole moment (field-independent basis, Debye-Ang):
   XX=            -19.3675   YY=            -16.1643   ZZ=            -18.0324
   XY=              0.3090   XZ=              0.0000   YZ=              0.0000

 Normal termination of Gaussian 09 at Sat Feb 16 13:48:33 2019.
