 Gaussian 09, Revision D.01,
 Gaussian 09:  AS64L-G09RevD.01 24-Apr-2013

 ---------------------------------
 #P opt=calcfc ub97d/6-31g scf=xqc
 ---------------------------------

 ----
 name
 ----
 Symbolic Z-matrix:
 Charge =  0 Multiplicity = 2

 SCF Done:  E(UB97D) =  -153.026397030     A.U. after   19 cycles

  Exact polarizability:   0.000   0.000   0.000   0.000   0.000   0.000
 Approx polarizability:  66.046  -7.938  37.326   0.000   0.000  12.678

 SCF Done:  E(UB97D) =  -153.030614100     A.U. after   16 cycles
 SCF Done:  E(UB97D) =  -153.030731311     A.U. after   11 cycles
 SCF Done:  E(UB97D) =  -153.030735456     A.U. after   10 cycles
 Optimization completed.
    -- Stationary point found.

                         Standard orientation:
 ---------------------------------------------------------------------
 Center     Atomic      Atomic             Coordinates (Angstroms)
 Number     Number       Type             X           Y           Z
 ---------------------------------------------------------------------
      1          8           0        1.197424   -0.263143    0.000000
      2          6           0       -1.177631   -0.181422    0.000000
      3          6           0        0.113335    0.418128    0.000000
      4          1           0       -2.083360    0.428213    0.000000
      5          1           0       -1.266815   -1.269135    0.000000
      6          1           0        0.156564    1.525829    0.000000
 ---------------------------------------------------------------------

 The electronic state is 2-A.
 Alpha  occ. eigenvalues --  -18.77833  -9.99777  -9.95837  -0.95934  -0.70211
 Alpha  occ. eigenvalues --   -0.53078  -0.44884  -0.40126  -0.36048  -0.35987
 Alpha  occ. eigenvalues --   -0.23219  -0.21864
 Alpha virt. eigenvalues --   -0.03397   0.08288   0.09654   0.13463   0.23233
 Alpha virt. eigenvalues --    0.26361   0.48112   0.50856   0.55812   0.58127
 Alpha virt. eigenvalues --    0.59773   0.60621   0.77539   0.83043   0.86333

  Beta  occ. eigenvalues --  -18.77247  -9.99846  -9.95532  -0.94153  -0.67593
  Beta  occ. eigenvalues --   -0.52215  -0.43964  -0.39056  -0.34931  -0.33346
  Beta  occ. eigenvalues --   -0.20446
  Beta virt. eigenvalues --   -0.16895  -0.00750   0.09077   0.10468   0.14012
  Beta virt. eigenvalues --    0.23623   0.26964   0.49546   0.51518   0.56710
  Beta virt. eigenvalues --    0.58334   0.59859   0.60915   0.78263   0.83271

 Mulliken charges and spin densities:
               1          2
     1  O   -0.381518   0.411855
     2  C   -0.245134   0.828554
     3  C    0.165956  -0.152751
     4  H    0.159452  -0.043980
     5  H    0.177885  -0.044311
     6  H    0.123358   0.000632
 Sum of Mulliken charges =   0.00000   1.00000

 Dipole moment (field-independent basis, Debye):
    X=             -2.9167    Y=              0.8521    Z=              0.0000  Tot=              3.0386
 Quadrupole moment (field-independent basis, Debye-Ang):
   XX=            -18.9930   YY=            -16.5399   ZZ=            -18.0323
   XY=              1.0747   XZ=              0.0000   YZ=              0.0000

 Normal termination of Gaussian 09 at Sat Feb 16 13:48:31 2019.
