 Gaussian 09, Revision D.01,
 Gaussian 09:  AS64L-G09RevD.01 24-Apr-2013

 --------------------------------
 #P opt=calcfc b97d/6-31g scf=xqc
 --------------------------------

 ----
 name
 ----
 Symbolic Z-matrix:
 Charge =  0 Multiplicity = 1

 SCF Done:  E(RB97D) =  -117.793021570     A.U. after   13 cycles

  Exact polarizability:   0.000   0.000   0.000   0.000   0.000   0.000
 Approx polarizability:  68.011  13.119  49.848   0.000   0.000  25.197

 SCF Done:  E(RB97D) =  -117.793458947     A.U. after   12 cycles
 SCF Done:  E(RB97D) =  -117.795777068     A.U. after   13 cycles
 SCF Done:  E(RB97D) =  -117.737710139     A.U. after   13 cycles
 SCF Done:  E(RB97D) =  -117.795779750     A.U. after    8 cycles
 SCF Done:  E(RB97D) =  -117.796298770     A.U. after   11 cycles
 SCF Done:  E(RB97D) =  -117.796273632     A.U. after   14 cycles
 SCF Done:  E(RB97D) =  -117.797023481     A.U. after   11 cycles
 SCF Done:  E(RB97D) =  -117.797126422     A.U. after   11 cycles
 SCF Done:  E(RB97D) =  -117.797142873     A.U. after   10 cycles
 SCF Done:  E(RB97D) =  -117.797143029     A.U. after    7 cycles
 Optimization completed.
    -- Stationary point found.

                         Standard orientation:
 ---------------------------------------------------------------------
 Center     Atomic      Atomic             Coordinates (Angstroms)
 Number     Number       Type             X           Y           Z
 ---------------------------------------------------------------------
      1          6           0        1.241505   -0.165660   -0.000001
      2          6           0       -0.133229    0.463705    0.000018
      3          6           0       -1.291243   -0.222990   -0.000002
      4          1           0        1.175509   -1.265235   -0.000965
      5          1           0        1.823287    0.146575   -0.886175
      6          1           0        1.822644    0.145135    0.887076
      7          1           0       -0.160314    1.559598   -0.000021
      8          1           0       -1.303223   -1.316533    0.000060
      9          1           0       -2.260098    0.280129   -0.000062
 ---------------------------------------------------------------------

 The electronic state is 1-A.
 Alpha  occ. eigenvalues --   -9.91250  -9.90374  -9.89653  -0.70753  -0.61512
 Alpha  occ. eigenvalues --   -0.49401  -0.41105  -0.36797  -0.36114  -0.32275
 Alpha  occ. eigenvalues --   -0.29880  -0.21386
 Alpha virt. eigenvalues --   -0.00283   0.09377   0.11208   0.12839   0.15068
 Alpha virt. eigenvalues --    0.15444   0.16520   0.25896   0.34656   0.49129
 Alpha virt. eigenvalues --    0.51310   0.52664   0.58963   0.61694   0.62227

 Mulliken charges:
               1
     1  C   -0.472693
     2  C   -0.057125
     3  C   -0.303683
     4  H    0.148398
     5  H    0.152895
     6  H    0.152925
     7  H    0.125338
     8  H    0.125443
     9  H    0.128503
 Sum of Mulliken charges =   0.00000

 Dipole moment (field-independent basis, Debye):
    X=              0.3785    Y=              0.0843    Z=              0.0001  Tot=              0.3878
 Quadrupole moment (field-independent basis, Debye-Ang):
   XX=            -18.8255   YY=            -18.6965   ZZ=            -21.3746
   XY=              0.0975   XZ=              0.0002   YZ=              0.0000

 Normal termination of Gaussian 09 at Sat Feb 16 13:49:37 2019.
