 Gaussian 09, Revision D.01,
 Gaussian 09:  AS64L-G09RevD.01 24-Apr-2013

 --------------------------------------------------------------
 #P opt=(modredundant, calcfc, noeigentest) b3lyp/cbsb7 scf=xqc
 --------------------------------------------------------------

 ----
 name
 ----
 Symbolic Z-matrix:
 Charge =  0 Multiplicity = 1

 SCF Done:  E(RB3LYP) =  -111.897638521     A.U. after   10 cycles

  Exact polarizability:   0.000   0.000   0.000   0.000   0.000   0.000
 Approx polarizability:  18.012  -4.064  24.267   0.000   0.000  23.682

 Optimization completed.
    -- Stationary point found.
 SCF Done:  E(RB3LYP) =  -111.896651895     A.U. after   11 cycles
 SCF Done:  E(RB3LYP) =  -111.897622758     A.U. after   10 cycles
 SCF Done:  E(RB3LYP) =  -111.897628076     A.U. after    8 cycles
 Optimization completed.
 SCF Done:  E(RB3LYP) =  -111.896623231     A.U. after   11 cycles
 SCF Done:  E(RB3LYP) =  -111.897614181     A.U. after   10 cycles
 SCF Done:  E(RB3LYP) =  -111.897622490     A.U. after    8 cycles
 SCF Done:  E(RB3LYP) =  -111.896673461     A.U. after   11 cycles
 SCF Done:  E(RB3LYP) =  -111.897707789     A.U. after   11 cycles
 SCF Done:  E(RB3LYP) =  -111.897715134     A.U. after    8 cycles
 SCF Done:  E(RB3LYP) =  -111.897710711     A.U. after    8 cycles
 SCF Done:  E(RB3LYP) =  -111.896578885     A.U. after   11 cycles
 SCF Done:  E(RB3LYP) =  -111.897616219     A.U. after   11 cycles
 SCF Done:  E(RB3LYP) =  -111.897621899     A.U. after    8 cycles
 SCF Done:  E(RB3LYP) =  -111.896625186     A.U. after   11 cycles
 SCF Done:  E(RB3LYP) =  -111.897623472     A.U. after   11 cycles
 SCF Done:  E(RB3LYP) =  -111.897628558     A.U. after    8 cycles
    -- Stationary point found.
 SCF Done:  E(RB3LYP) =  -111.896663691     A.U. after   11 cycles
 SCF Done:  E(RB3LYP) =  -111.897636362     A.U. after   11 cycles
 SCF Done:  E(RB3LYP) =  -111.897641792     A.U. after    7 cycles
 Optimization completed.
    -- Stationary point found.

                         Standard orientation:
 ---------------------------------------------------------------------
 Center     Atomic      Atomic             Coordinates (Angstroms)
 Number     Number       Type             X           Y           Z
 ---------------------------------------------------------------------
      1          7           0        0.726550   -0.000135    0.157447
      2          7           0       -0.726562   -0.000115   -0.157399
      3          1           0        1.088569   -0.794957   -0.368403
      4          1           0        1.088911    0.795382   -0.367156
      5          1           0       -1.088185    0.795929    0.366795
      6          1           0       -1.089207   -0.794603    0.368430
 ---------------------------------------------------------------------

 The electronic state is 1-A.
 Alpha  occ. eigenvalues --  -14.31090 -14.31081  -0.93733  -0.75387  -0.51390
 Alpha  occ. eigenvalues --   -0.43826  -0.40637  -0.35133  -0.20518
 Alpha virt. eigenvalues --    0.03958   0.06240   0.09534   0.13132   0.18047
 Alpha virt. eigenvalues --    0.35577   0.37547   0.42385   0.46022   0.58336
 Alpha virt. eigenvalues --    0.59045   0.67482   0.69331   0.73822   0.74439

 Mulliken charges:
               1
     1  N   -0.402360
     2  N   -0.402373
     3  H    0.201181
     4  H    0.201156
     5  H    0.201153
     6  H    0.201243
 Sum of Mulliken charges =   0.00000

 Dipole moment (field-independent basis, Debye):
    X=             -0.0001    Y=              0.0031    Z=             -0.0004  Tot=              0.0031
 Quadrupole moment (field-independent basis, Debye-Ang):
   XX=            -12.2368   YY=            -10.6630   ZZ=            -15.4592
   XY=              0.0009   XZ=             -3.9345   YZ=              0.0000

 Normal termination of Gaussian 09 at Sat Feb 16 14:26:17 2019.
