 Gaussian 09, Revision D.01,
 Gaussian 09:  AS64L-G09RevD.01 24-Apr-2013

 ------------------------------------------------
 #P wb97xd/6-311++g(d,p) freq iop(7/33=1) scf=xqc
 ------------------------------------------------

 ----
 name
 ----
 Symbolic Z-matrix:
 Charge =  0 Multiplicity = 1

                         Standard orientation:
 ---------------------------------------------------------------------
 Center     Atomic      Atomic             Coordinates (Angstroms)
 Number     Number       Type             X           Y           Z
 ---------------------------------------------------------------------
      1          1           0        0.000000    0.000000    0.372227
      2          1           0        0.000000    0.000000   -0.372227
 ---------------------------------------------------------------------

 SCF Done:  E(RwB97XD) =  -1.17607108371     A.U. after    6 cycles

 The electronic state is 1-SGG.
 Alpha  occ. eigenvalues --   -0.51641
 Alpha virt. eigenvalues --    0.07120   0.07696   0.20594   0.42500   0.64269
 Alpha virt. eigenvalues --    1.17214   1.17214   1.69954   1.91544   1.91544
 Alpha virt. eigenvalues --    2.13950   2.58551   3.40850

 Mulliken charges:
               1
     1  H    0.000000
     2  H    0.000000
 Sum of Mulliken charges =   0.00000

 Dipole moment (field-independent basis, Debye):
    X=              0.0000    Y=              0.0000    Z=              0.0000  Tot=              0.0000
 Quadrupole moment (field-independent basis, Debye-Ang):
   XX=             -2.0743   YY=             -2.0743   ZZ=             -1.5147
   XY=              0.0000   XZ=              0.0000   YZ=              0.0000

  Exact polarizability:   1.100   0.000   1.100   0.000   0.000   6.938
 Approx polarizability:   1.050   0.000   1.050   0.000   0.000   6.101

                      1
                     SGG
 Frequencies --   4433.3825
 Red. masses --      1.0078
 Frc consts  --     11.6709
 IR Inten    --      0.0000

 - Thermochemistry -
 -------------------
 Temperature   298.150 Kelvin.  Pressure   1.00000 Atm.
 Atom     1 has atomic number  1 and mass   1.00783

 Molecular mass:     2.01565 amu.
 Principal axes and moments of inertia in atomic units:
                           1         2         3
     Eigenvalues --     0.00000   0.99731   0.99731
           X            0.00000   1.00000   0.00000
           Y            0.00000   0.00000   1.00000
           Z            1.00000   0.00000   0.00000
 This molecule is a prolate symmetric top.
 Rotational symmetry number  2.
 Rotational temperature (Kelvin)     86.84774
 Rotational constant (GHZ):        1809.615523
 Zero-point vibrational energy      26517.5 (Joules/Mol)
                                    6.33784 (Kcal/Mol)
 Vibrational temperatures:   6378.64
          (Kelvin)

 Zero-point correction=                           0.010100 (Hartree/Particle)
 Thermal correction to Energy=                    0.012460
 Thermal correction to Enthalpy=                  0.013405
 Thermal correction to Gibbs Free Energy=        -0.001392
 Sum of electronic and zero-point Energies=             -1.165971
 Sum of electronic and thermal Energies=                -1.163611
 Sum of electronic and thermal Enthalpies=              -1.162666
 Sum of electronic and thermal Free Energies=           -1.177463

                     E (Thermal)             CV                S
                      KCal/Mol        Cal/Mol-Kelvin    Cal/Mol-Kelvin
 Total                    7.819              4.968             31.141
 Electronic               0.000              0.000              0.000
 Translational            0.889              2.981             28.080
 Rotational               0.592              1.987              3.061
 Vibrational              6.338              0.000              0.000

 Optimization completed.
    -- Stationary point found.

 1\1\GINC-NODE006\Freq\RwB97XD\6-311++G(d,p)\H2\DUMINDA\16-Feb-2019\0\\
 #P wb97xd/6-311++g(d,p) freq iop(7/33=1) scf=xqc\\name\\0,1\H,1.15142,
 -0.095835,-0.016014\H,1.895874,-0.095835,-0.016013\\Version=AS64L-G09R
 evD.01\State=1-SGG\HF=-1.1760711\RMSD=2.289e-10\RMSF=3.492e-05\ZeroPoi
 nt=0.0101\Thermal=0.0124605\Dipole=0.,0.,0.\DipoleDeriv=0.,0.,0.,0.,0.
 ,0.,0.,0.,0.,0.,0.,0.,0.,0.,0.,0.,0.,0.\Polar=6.9376766,0.,1.1003239,0
 .0000078,0.,1.1003239\PG=D*H [C*(H1.H1)]\NImag=0\\0.37481503,0.,-0.001
 34695,0.00000051,0.,-0.00134695,-0.37481503,0.,-0.00000051,0.37481503,

 Normal termination of Gaussian 09 at Sat Feb 16 12:58:53 2019.
