 Gaussian 09, Revision D.01,
 Gaussian 09:  AS64L-G09RevD.01 24-Apr-2013

 --------------------------------------------
 #P opt=(noeigentest, calcfc) cbs-qb3 scf=xqc
 --------------------------------------------

 ----
 name
 ----
 Symbolic Z-matrix:
 Charge =  0 Multiplicity = 2

 SCF Done:  E(UB3LYP) =  -75.7545116718     A.U. after   12 cycles
 SCF Done:  E(UB3LYP) =  -75.7545273576     A.U. after    8 cycles
 Optimization completed.
    -- Stationary point found.
 Normal termination of Gaussian 09 at Sat Feb 16 13:47:33 2019.

 ---------------------------------------------------------
 #P Geom=AllCheck Guess=TCheck SCRF=Check B3LYP/CBSB7 Freq
 ---------------------------------------------------------

 Structure from the checkpoint file:  "check.chk"
 ----
 name
 ----
 Charge =  0 Multiplicity = 2

 SCF Done:  E(UB3LYP) =  -75.7545273576     A.U. after    1 cycles

  Exact polarizability:   2.782   0.000   2.913   0.000   0.000   6.410
 Approx polarizability:   2.799   0.000   3.134   0.000   0.000   7.912

                      1
                     SG
 Frequencies --   3705.5241
 Red. masses --      1.0671
 Frc consts  --      8.6328
 IR Inten    --      5.6736

 - Thermochemistry -
 -------------------
 Temperature   298.150 Kelvin.  Pressure   1.00000 Atm.
 Atom     1 has atomic number  8 and mass  15.99491

 Molecular mass:    17.00274 amu.
 Principal axes and moments of inertia in atomic units:
                           1         2         3
     Eigenvalues --     0.00000   3.21949   3.21949
           X            0.00000   0.00000   1.00000
           Y            0.00000   1.00000   0.00000
           Z            1.00000   0.00000   0.00000
 This molecule is a prolate symmetric top.
 Rotational symmetry number  1.
 Rotational temperature (Kelvin)     26.90298
 Rotational constant (GHZ):         560.567871
 Zero-point vibrational energy      22164.0 (Joules/Mol)
                                    5.29731 (Kcal/Mol)
 Vibrational temperatures:   5331.42
          (Kelvin)

 Zero-point correction=                           0.008442 (Hartree/Particle)
 Thermal correction to Energy=                    0.010802
 Thermal correction to Enthalpy=                  0.011746
 Thermal correction to Gibbs Free Energy=        -0.008485
 Sum of electronic and zero-point Energies=            -75.746086
 Sum of electronic and thermal Energies=               -75.743725
 Sum of electronic and thermal Enthalpies=             -75.742781
 Sum of electronic and thermal Free Energies=          -75.763013

                     E (Thermal)             CV                S
                      KCal/Mol        Cal/Mol-Kelvin    Cal/Mol-Kelvin
 Total                    6.779              4.968             42.581
 Electronic               0.000              0.000              1.377
 Translational            0.889              2.981             34.437
 Rotational               0.592              1.987              6.767
 Vibrational              5.297              0.000              0.000

 Optimization completed.
    -- Stationary point found.
 Normal termination of Gaussian 09 at Sat Feb 16 13:47:55 2019.

 -----------------------------------------------------------
 #P Geom=AllCheck Guess=TCheck SCRF=Check CCSD(T)/6-31+G(d')
 -----------------------------------------------------------

 Structure from the checkpoint file:  "check.chk"
 ----
 name
 ----
 Charge =  0 Multiplicity = 2

 SCF Done:  E(UHF) =  -75.3835596736     A.U. after   12 cycles
 E2 =    -0.1496064205D+00 EUMP2 =    -0.75533166094109D+02
 CCSD(T)
 CCSD(T)= -0.75549456299D+02
 67\MP4SDQ=-75.5466104\CCSD=-75.5475109\CCSD(T)=-75.5494563\S2=0.755759
 Normal termination of Gaussian 09 at Sat Feb 16 13:48:36 2019.

 -----------------------------------------------------
 #P Geom=AllCheck Guess=TCheck SCRF=Check MP4SDQ/CBSB4
 -----------------------------------------------------

 Structure from the checkpoint file:  "check.chk"
 ----
 name
 ----
 Charge =  0 Multiplicity = 2

 SCF Done:  E(UHF) =  -75.3932550500     A.U. after   11 cycles
 E2 =    -0.1562516444D+00 EUMP2 =    -0.75549506694443D+02
 Normal termination of Gaussian 09 at Sat Feb 16 13:48:54 2019.

 ----------------------------------------------------------------------
 #P Geom=AllCheck Guess=TCheck SCRF=Check MP2/CBSB3 CBSExtrap=(NMin=10,
 MinPop)
 ----------------------------------------------------------------------

 Structure from the checkpoint file:  "check.chk"
 ----
 name
 ----
 Charge =  0 Multiplicity = 2

                         Standard orientation:
 ---------------------------------------------------------------------
 Center     Atomic      Atomic             Coordinates (Angstroms)
 Number     Number       Type             X           Y           Z
 ---------------------------------------------------------------------
      1          8           0        0.000000    0.000000    0.108350
      2          1           0        0.000000    0.000000   -0.866798
 ---------------------------------------------------------------------

 SCF Done:  E(UHF) =  -75.4175727076     A.U. after   11 cycles
 E2 =    -0.1968738274D+00 EUMP2 =    -0.75614446534991D+02
 E2(CBS)=      -0.220185 CBS-Int=       0.006677 OIii=       1.852075

 Unable to determine electronic state:  an orbital has unidentified symmetry.
 Alpha  occ. eigenvalues --  -20.64117  -1.38876  -0.68213  -0.65889  -0.56213
 Alpha virt. eigenvalues --    0.04395   0.22378   0.22954   0.23882   0.24421
 Alpha virt. eigenvalues --    0.30109   0.66848   0.83591   0.85401   1.04648
 Alpha virt. eigenvalues --    1.17537   1.22758   1.49579   1.57576   1.67930

  Beta  occ. eigenvalues --  -20.60067  -1.23003  -0.63809  -0.51378
  Beta virt. eigenvalues --    0.04586   0.07191   0.23507   0.24305   0.24895
  Beta virt. eigenvalues --    0.30705   0.30848   0.67807   0.85137   0.86112
  Beta virt. eigenvalues --    1.05904   1.24616   1.32107   1.51549   1.61660

 Mulliken charges and spin densities:
               1          2
     1  O   -0.250958   1.041422
     2  H    0.250958  -0.041422
 Sum of Mulliken charges =   0.00000   1.00000

 Dipole moment (field-independent basis, Debye):
    X=              0.0000    Y=              0.0000    Z=             -1.8153  Tot=              1.8153
 Quadrupole moment (field-independent basis, Debye-Ang):
   XX=             -6.7402   YY=             -5.4140   ZZ=             -4.5275
   XY=              0.0000   XZ=              0.0000   YZ=              0.0000

 1\1\GINC-NODE006\Mixed\CBS-QB3\CBS-QB3\H1O1(2)\DUMINDA\16-Feb-2019\0\\
 #P opt=(noeigentest, calcfc) cbs-qb3 scf=xqc\\name\\0,2\O,0,0.,0.,-0.1
 220930803\H,0,0.,0.,0.8530546503\\Version=AS64L-G09RevD.01\HF/CbsB3=-7
 5.4175727\E2(CBS)/CbsB3=-0.2201846\CBS-Int/CbsB3=0.0066766\OIii/CbsB3=
 1.8520752\MP2/CbsB4=-75.5495067\MP4(SDQ)/CbsB4=-75.5628681\MP4(SDQ)/6-
 31+G(d')=-75.5466104\QCISD(T)/6-31+G(d')=-75.5494563\CBSQB3=-75.649718
 7\FreqCoord=0.,0.,-0.2307224845,0.,0.,1.6120396655\PG=C*V [C*(H1O1)]\N
 Imag=0\\-0.00003796,0.,-0.00007033,0.,0.,0.49265046,0.00003796,0.,0.,-

 Normal termination of Gaussian 09 at Sat Feb 16 13:49:15 2019.
