 Gaussian 09, Revision D.01,
 Gaussian 09:  AS64L-G09RevD.01 24-Apr-2013

 ------------------------------------------------
 #P opt=(ts, noeigentest, calcfc) cbs-qb3 scf=xqc
 ------------------------------------------------

 ----
 name
 ----
 Symbolic Z-matrix:
 Charge =  0 Multiplicity = 3

 SCF Done:  E(UB3LYP) =  -167.134307789     A.U. after   16 cycles
 SCF Done:  E(UB3LYP) =  -167.134445585     A.U. after   17 cycles
 SCF Done:  E(UB3LYP) =  -167.134760180     A.U. after   18 cycles
 SCF Done:  E(UB3LYP) =  -167.134777840     A.U. after   15 cycles
 SCF Done:  E(UB3LYP) =  -167.134780611     A.U. after   11 cycles
 SCF Done:  E(UB3LYP) =  -167.134780773     A.U. after   11 cycles
 Optimization completed.
    -- Stationary point found.
 Normal termination of Gaussian 09 at Sat Feb 16 17:25:36 2019.

 ---------------------------------------------------------
 #P Geom=AllCheck Guess=TCheck SCRF=Check B3LYP/CBSB7 Freq
 ---------------------------------------------------------

 Structure from the checkpoint file:  "check.chk"
 ----
 name
 ----
 Charge =  0 Multiplicity = 3

 SCF Done:  E(UB3LYP) =  -167.134780773     A.U. after    1 cycles

  Exact polarizability:  75.168  -5.130  23.825   1.027  -0.352  23.593
 Approx polarizability: 107.148  -7.368  31.536  -0.846  -0.758  31.484

 ******    1 imaginary frequencies (negative Signs) ******

                      1                      2                      3
                      A                      A                      A
 Frequencies --  -1283.3244                81.5309               166.1950
 Red. masses --      1.1127                 1.1191                 3.3447
 Frc consts  --      1.0797                 0.0044                 0.0544
 IR Inten    --   1642.3226                64.3850                 3.4488

                      4                      5                      6
                      A                      A                      A
 Frequencies --    195.7531               438.7405               657.7583
 Red. masses --      1.1335                 1.3043                 1.9501
 Frc consts  --      0.0256                 0.1479                 0.4971
 IR Inten    --     38.6917                18.5454               153.5831

                      7                      8                      9
                      A                      A                      A
 Frequencies --    747.4723               888.4261              1118.6567
 Red. masses --      1.3492                 1.5571                 3.3972
 Frc consts  --      0.4441                 0.7241                 2.5047
 IR Inten    --    109.4775                86.3781                80.6099

                     10                     11                     12
                      A                      A                      A
 Frequencies --   1163.9472              1407.7970              1461.6015
 Red. masses --      1.0746                 1.0931                 1.2105
 Frc consts  --      0.8577                 1.2764                 1.5236
 IR Inten    --     16.7218                99.3429                 9.5636

                     13                     14                     15
                      A                      A                      A
 Frequencies --   1598.3812              1675.9705              3298.5365
 Red. masses --      1.0497                 1.0636                 1.0738
 Frc consts  --      1.5801                 1.7602                 6.8838
 IR Inten    --     61.7096                 2.2832                27.5433

                     16                     17                     18
                      A                      A                      A
 Frequencies --   3461.6833              3492.3750              3589.6343
 Red. masses --      1.0742                 1.0468                 1.0987
 Frc consts  --      7.5844                 7.5222                 8.3415
 IR Inten    --      4.7523                12.1558                 6.0741

 - Thermochemistry -
 -------------------
 Temperature   298.150 Kelvin.  Pressure   1.00000 Atm.
 Atom     1 has atomic number  7 and mass  14.00307

 Molecular mass:    47.04835 amu.
 Principal axes and moments of inertia in atomic units:
                           1         2         3
     Eigenvalues --    54.37102 326.72500 360.17008
           X            0.99993   0.00316   0.01147
           Y           -0.00379   0.99846   0.05531
           Z           -0.01127  -0.05535   0.99840
 This molecule is an asymmetric top.
 Rotational symmetry number  1.
 Rotational temperatures (Kelvin)      1.59301     0.26510     0.24048
 Rotational constants (GHZ):          33.19307     5.52373     5.01080
    1 imaginary frequencies ignored.
 Zero-point vibrational energy     152191.7 (Joules/Mol)
                                   36.37468 (Kcal/Mol)
 Warning -- explicit consideration of   4 degrees of freedom as
           vibrations may cause significant error
 Vibrational temperatures:    117.30   239.12   281.64   631.25   946.37
          (Kelvin)           1075.44  1278.25  1609.50  1674.66  2025.50
                             2102.92  2299.71  2411.34  4745.85  4980.58
                             5024.74  5164.68

 Zero-point correction=                           0.057967 (Hartree/Particle)
 Thermal correction to Energy=                    0.063370
 Thermal correction to Enthalpy=                  0.064314
 Thermal correction to Gibbs Free Energy=         0.029499
 Sum of electronic and zero-point Energies=           -167.076814
 Sum of electronic and thermal Energies=              -167.071411
 Sum of electronic and thermal Enthalpies=            -167.070467
 Sum of electronic and thermal Free Energies=         -167.105282

                     E (Thermal)             CV                S
                      KCal/Mol        Cal/Mol-Kelvin    Cal/Mol-Kelvin
 Total                   39.765             15.984             73.274
 Electronic               0.000              0.000              2.183
 Translational            0.889              2.981             37.471
 Rotational               0.889              2.981             23.374
 Vibrational             37.988             10.022             10.246
 Vibration     1          0.600              1.962              3.854
 Vibration     2          0.624              1.884              2.478
 Vibration     3          0.636              1.846              2.173
 Vibration     4          0.799              1.386              0.831

 Optimization completed.
    -- Stationary point found.
 Normal termination of Gaussian 09 at Sat Feb 16 17:26:24 2019.

 -----------------------------------------------------------
 #P Geom=AllCheck Guess=TCheck SCRF=Check CCSD(T)/6-31+G(d')
 -----------------------------------------------------------

 Structure from the checkpoint file:  "check.chk"
 ----
 name
 ----
 Charge =  0 Multiplicity = 3

 SCF Done:  E(UHF) =  -166.086325694     A.U. after   20 cycles
 E2 =    -0.4559703671D+00 EUMP2 =    -0.16654229606098D+03
 CCSD(T)
 CCSD(T)= -0.16659871106D+03
 CCSD=-166.585667\CCSD(T)=-166.5987111\S2=2.043732\S2-1=2.016329\S2A=2.
 Normal termination of Gaussian 09 at Sat Feb 16 18:32:28 2019.

 -----------------------------------------------------
 #P Geom=AllCheck Guess=TCheck SCRF=Check MP4SDQ/CBSB4
 -----------------------------------------------------

 Structure from the checkpoint file:  "check.chk"
 ----
 name
 ----
 Charge =  0 Multiplicity = 3

 SCF Done:  E(UHF) =  -166.107883357     A.U. after   16 cycles
 E2 =    -0.4906306556D+00 EUMP2 =    -0.16659851401272D+03
 Normal termination of Gaussian 09 at Sat Feb 16 18:33:59 2019.

 ----------------------------------------------------------------------
 #P Geom=AllCheck Guess=TCheck SCRF=Check MP2/CBSB3 CBSExtrap=(NMin=10,
 MinPop)
 ----------------------------------------------------------------------

 Structure from the checkpoint file:  "check.chk"
 ----
 name
 ----
 Charge =  0 Multiplicity = 3

                         Standard orientation:
 ---------------------------------------------------------------------
 Center     Atomic      Atomic             Coordinates (Angstroms)
 Number     Number       Type             X           Y           Z
 ---------------------------------------------------------------------
      1          7           0       -0.445163    0.671873   -0.116256
      2          1           0       -0.422514    1.140873    0.789915
      3          1           0        0.657748    0.338307   -0.273290
      4          7           0       -1.263244   -0.470370    0.024439
      5          1           0       -1.949955   -0.360956    0.761539
      6          1           0       -1.741002   -0.635339   -0.854603
      7          7           0        1.935950   -0.173903   -0.085745
      8          1           0        1.862919   -0.676085    0.819373
 ---------------------------------------------------------------------

 SCF Done:  E(UHF) =  -166.155760690     A.U. after   16 cycles
 E2 =    -0.5880086738D+00 EUMP2 =    -0.16674376936336D+03
 E2(CBS)=      -0.649217 CBS-Int=       0.019528 OIii=       4.941942

 The electronic state is 3-A.
 Alpha  occ. eigenvalues --  -15.64190 -15.57815 -15.56806  -1.27074  -1.18960
 Alpha  occ. eigenvalues --   -1.00339  -0.71235  -0.66756  -0.61550  -0.58805
 Alpha  occ. eigenvalues --   -0.55394  -0.51289  -0.48622  -0.34888
 Alpha virt. eigenvalues --    0.04137   0.05925   0.06761   0.07827   0.10451
 Alpha virt. eigenvalues --    0.18007   0.18422   0.18928   0.21162   0.22290
 Alpha virt. eigenvalues --    0.23110   0.23986   0.24163   0.25693   0.26634

  Beta  occ. eigenvalues --  -15.58281 -15.56788 -15.56481  -1.24976  -1.00007
  Beta  occ. eigenvalues --   -0.94029  -0.69765  -0.61809  -0.59515  -0.50473
  Beta  occ. eigenvalues --   -0.47814  -0.33112
  Beta virt. eigenvalues --    0.04263   0.05460   0.05705   0.07665   0.08409
  Beta virt. eigenvalues --    0.09467   0.10817   0.18449   0.20090   0.21790
  Beta virt. eigenvalues --    0.22358   0.23501   0.23924   0.24393   0.26189

 Mulliken charges and spin densities:
               1          2
     1  N   -0.371158   0.302763
     2  H    0.136308  -0.012746
     3  H    0.357068  -0.155433
     4  N   -0.387060   0.018646
     5  H    0.153067   0.004524
     6  H    0.175139   0.002215
     7  N   -0.218439   1.920652
     8  H    0.155076  -0.080622
 Sum of Mulliken charges =   0.00000   2.00000

 Dipole moment (field-independent basis, Debye):
    X=             -0.7131    Y=             -0.5186    Z=              2.2636  Tot=              2.4293
 Quadrupole moment (field-independent basis, Debye-Ang):
   XX=            -17.3239   YY=            -21.8925   ZZ=            -17.8238
   XY=             -0.3314   XZ=              1.9895   YZ=              2.1204

    1 imaginary frequencies ignored.

 1\1\GINC-NODE004\Mixed\CBS-QB3\CBS-QB3\H5N3(3)\DUMINDA\16-Feb-2019\0\\
 #P opt=(ts, noeigentest, calcfc) cbs-qb3 scf=xqc\\name\\0,3\N,0,-0.451
 1401932,0.6686231089,-0.0554952793\H,0,-0.4092121011,1.063825668,0.884
 5452191\H,0,0.6470739966,0.345308326,-0.2597781534\N,0,-1.271590543,-0
 .4787261043,0.0094890023\H,0,-1.9437214164,-0.4263445612,0.7660311974\
 H,0,-1.7666472196,-0.5716549397,-0.8705475038\N,0,1.9262582054,-0.1840
 773796,-0.1382376554\H,0,1.8680931863,-0.7565889025,0.7252475018\\Vers
 ion=AS64L-G09RevD.01\State=3-A\HF/CbsB3=-166.1557607\E2(CBS)/CbsB3=-0.

 Normal termination of Gaussian 09 at Sat Feb 16 18:36:25 2019.
