 Gaussian 09, Revision D.01,
 Gaussian 09:  AS64L-G09RevD.01 24-Apr-2013

 ----------------------------------------------------------------------
 #P opt=calcfc wb97xd/6-311++g(d,p) scf=(tight, direct) int=finegrid sc
 f=xqc
 ----------------------------------------------------------------------

 ----
 name
 ----
 Symbolic Z-matrix:
 Charge =  0 Multiplicity = 1

 SCF Done:  E(RwB97XD) =  -1.17607108371     A.U. after    6 cycles

 The electronic state is 1-SGG.
 Alpha  occ. eigenvalues --   -0.51641
 Alpha virt. eigenvalues --    0.07120   0.07696   0.20594   0.42500   0.64269
 Alpha virt. eigenvalues --    1.17214   1.17214   1.69954   1.91544   1.91544
 Alpha virt. eigenvalues --    2.13950   2.58551   3.40850

 Mulliken charges:
               1
     1  H    0.000000
     2  H    0.000000
 Sum of Mulliken charges =   0.00000

 Dipole moment (field-independent basis, Debye):
    X=              0.0000    Y=              0.0000    Z=              0.0000  Tot=              0.0000
 Quadrupole moment (field-independent basis, Debye-Ang):
   XX=             -2.0743   YY=             -2.0743   ZZ=             -1.5147
   XY=              0.0000   XZ=              0.0000   YZ=              0.0000

  Exact polarizability:   0.000   0.000   0.000   0.000   0.000   0.000
 Approx polarizability:   1.050   0.000   1.050   0.000   0.000   6.101

 Optimization completed.
    -- Stationary point found.

                         Standard orientation:
 ---------------------------------------------------------------------
 Center     Atomic      Atomic             Coordinates (Angstroms)
 Number     Number       Type             X           Y           Z
 ---------------------------------------------------------------------
      1          1           0        0.000000    0.000000    0.372227
      2          1           0        0.000000    0.000000   -0.372227
 ---------------------------------------------------------------------

 1\1\GINC-NODE006\FOpt\RwB97XD\6-311++G(d,p)\H2\DUMINDA\16-Feb-2019\0\\
 #P opt=calcfc wb97xd/6-311++g(d,p) scf=(tight, direct) int=finegrid sc
 f=xqc\\name\\0,1\H,1.15142,-0.095835,-0.016014\H,1.895874,-0.095835,-0
 .016013\\Version=AS64L-G09RevD.01\State=1-SGG\HF=-1.1760711\RMSD=2.289
 e-10\RMSF=3.492e-05\Dipole=0.,0.,0.\Polar=0.,0.,0.,0.,0.,0.\Quadrupole
 =0.2773228,-0.1386614,-0.1386614,0.,0.0000006,0.\PG=D*H [C*(H1.H1)]\\@

 Normal termination of Gaussian 09 at Sat Feb 16 12:58:17 2019.
