 Gaussian 09, Revision D.01,
 Gaussian 09:  AS64L-G09RevD.01 24-Apr-2013

 --------------------------------------------------------
 #P opt=calcfc / scf=(tight, direct) int=finegrid scf=xqc
 --------------------------------------------------------

 ----
 name
 ----
 Symbolic Z-matrix:
 Charge =  0 Multiplicity = 1

 SCF Done:  E(RHF) =  -109.748056977     A.U. after    9 cycles

  Exact polarizability:   0.000   0.000   0.000   0.000   0.000   0.000
 Approx polarizability:   7.475   0.000   6.046  -1.249   0.000   5.637

 SCF Done:  E(RHF) =  -109.748057026     A.U. after    6 cycles
 Optimization completed.
    -- Stationary point found.

                         Standard orientation:
 ---------------------------------------------------------------------
 Center     Atomic      Atomic             Coordinates (Angstroms)
 Number     Number       Type             X           Y           Z
 ---------------------------------------------------------------------
      1          7           0        0.000000   -0.729240    0.085190
      2          7           0        0.000000    0.729240    0.085190
      3          1           0       -0.978976   -1.004504    0.285887
      4          1           0        0.174250   -1.067197   -0.882221
      5          1           0       -0.174250    1.067197   -0.882221
      6          1           0        0.978976    1.004504    0.285887
 ---------------------------------------------------------------------

 The electronic state is 1-A.
 Alpha  occ. eigenvalues --  -15.34992 -15.34923  -1.19638  -0.95490  -0.60837
 Alpha  occ. eigenvalues --   -0.59722  -0.52835  -0.35561  -0.34000
 Alpha virt. eigenvalues --    0.57914   0.58610   0.65332   0.68981   0.73307

 Mulliken charges:
               1
     1  N   -0.303306
     2  N   -0.303306
     3  H    0.161435
     4  H    0.141871
     5  H    0.141871
     6  H    0.161435
 Sum of Mulliken charges =   0.00000

 Dipole moment (field-independent basis, Debye):
    X=              0.0000    Y=              0.0000    Z=             -2.2238  Tot=              2.2238
 Quadrupole moment (field-independent basis, Debye-Ang):
   XX=            -11.2494   YY=            -12.5059   ZZ=            -11.8147
   XY=              2.4748   XZ=              0.0000   YZ=              0.0000

 Normal termination of Gaussian 09 at Sat Feb 16 14:28:04 2019.
