 Gaussian 09, Revision D.01,
 Gaussian 09:  AS64L-G09RevD.01 24-Apr-2013

 --------------------------------------------------------------
 #P opt=(modredundant, calcfc, noeigentest) b3lyp/cbsb7 scf=xqc
 --------------------------------------------------------------

 ----
 name
 ----
 Symbolic Z-matrix:
 Charge =  0 Multiplicity = 1

 SCF Done:  E(RB3LYP) =  -95.8884439395     A.U. after   11 cycles

  Exact polarizability:   0.000   0.000   0.000   0.000   0.000   0.000
 Approx polarizability:  24.074  -0.805  27.454   0.000   0.000  27.563

 Optimization completed.
    -- Stationary point found.
 SCF Done:  E(RB3LYP) =  -95.8873529561     A.U. after   10 cycles
 SCF Done:  E(RB3LYP) =  -95.8882243275     A.U. after    9 cycles
 SCF Done:  E(RB3LYP) =  -95.8882382873     A.U. after    8 cycles
 Optimization completed.
 SCF Done:  E(RB3LYP) =  -95.8868199063     A.U. after   10 cycles
 SCF Done:  E(RB3LYP) =  -95.8876728339     A.U. after   10 cycles
 SCF Done:  E(RB3LYP) =  -95.8876878694     A.U. after    8 cycles
 SCF Done:  E(RB3LYP) =  -95.8860278910     A.U. after   10 cycles
 SCF Done:  E(RB3LYP) =  -95.8868845581     A.U. after   10 cycles
 SCF Done:  E(RB3LYP) =  -95.8869013067     A.U. after    9 cycles
 SCF Done:  E(RB3LYP) =  -95.8867787384     A.U. after    8 cycles
 SCF Done:  E(RB3LYP) =  -95.8865429276     A.U. after    9 cycles
 SCF Done:  E(RB3LYP) =  -95.8876375672     A.U. after   10 cycles
 SCF Done:  E(RB3LYP) =  -95.8876450301     A.U. after    7 cycles
 SCF Done:  E(RB3LYP) =  -95.8872408595     A.U. after   10 cycles
 SCF Done:  E(RB3LYP) =  -95.8882289286     A.U. after   10 cycles
 SCF Done:  E(RB3LYP) =  -95.8882334049     A.U. after    7 cycles
    -- Stationary point found.
 SCF Done:  E(RB3LYP) =  -95.8875144652     A.U. after   10 cycles
 SCF Done:  E(RB3LYP) =  -95.8884367353     A.U. after   10 cycles
 SCF Done:  E(RB3LYP) =  -95.8884391643     A.U. after    7 cycles
 Optimization completed.
    -- Stationary point found.

                         Standard orientation:
 ---------------------------------------------------------------------
 Center     Atomic      Atomic             Coordinates (Angstroms)
 Number     Number       Type             X           Y           Z
 ---------------------------------------------------------------------
      1          7           0        0.752407   -0.000021    0.123702
      2          6           0       -0.706950   -0.000017   -0.017742
      3          1           0       -1.117529    0.878668    0.486573
      4          1           0       -1.084117   -0.000067   -1.052827
      5          1           0       -1.117948   -0.878362    0.486829
      6          1           0        1.147177    0.812077   -0.340002
      7          1           0        1.147271   -0.812064   -0.340033
 ---------------------------------------------------------------------

 The electronic state is 1-A.
 Alpha  occ. eigenvalues --  -14.28196 -10.18277  -0.87127  -0.65837  -0.48686
 Alpha  occ. eigenvalues --   -0.43797  -0.40089  -0.36739  -0.23442
 Alpha virt. eigenvalues --    0.04197   0.07866   0.09780   0.11790   0.13935
 Alpha virt. eigenvalues --    0.21429   0.30994   0.32995   0.37576   0.37987
 Alpha virt. eigenvalues --    0.48211   0.54473   0.58439   0.58641   0.63862

 Mulliken charges:
               1
     1  N   -0.471443
     2  C   -0.205379
     3  H    0.109209
     4  H    0.084026
     5  H    0.109216
     6  H    0.187186
     7  H    0.187185
 Sum of Mulliken charges =   0.00000

 Dipole moment (field-independent basis, Debye):
    X=             -0.2018    Y=              0.0001    Z=             -1.3614  Tot=              1.3763
 Quadrupole moment (field-independent basis, Debye-Ang):
   XX=            -13.8052   YY=            -12.6709   ZZ=            -15.2866
   XY=              0.0002   XZ=             -2.0244   YZ=              0.0000

 Normal termination of Gaussian 09 at Sat Feb 16 14:18:23 2019.
