 Gaussian 09, Revision D.01,
 Gaussian 09:  AS64L-G09RevD.01 24-Apr-2013

 --------------------------------------------------------------
 #P opt=(calcfc, noeigentest) b3lyp/cbsb7 scf=xqc iop(2/9=2000)
 --------------------------------------------------------------

 ----
 name
 ----
 Symbolic Z-matrix:
 Charge =  0 Multiplicity = 1

 SCF Done:  E(RB3LYP) =  -1.15275522445     A.U. after    6 cycles

  Exact polarizability:   0.000   0.000   0.000   0.000   0.000   0.000
 Approx polarizability:   1.240   0.000   1.240   0.000   0.000  14.786

 SCF Done:  E(RB3LYP) =  -1.17442419205     A.U. after    6 cycles
 SCF Done:  E(RB3LYP) =  -1.17953383372     A.U. after    7 cycles
 SCF Done:  E(RB3LYP) =  -1.17957101800     A.U. after    4 cycles
 Optimization completed.
    -- Stationary point found.

                         Standard orientation:
 ---------------------------------------------------------------------
 Center     Atomic      Atomic             Coordinates (Angstroms)
 Number     Number       Type             X           Y           Z
 ---------------------------------------------------------------------
      1          1           0        0.000000    0.000000    0.372130
      2          1           0        0.000000    0.000000   -0.372130
 ---------------------------------------------------------------------

 The electronic state is 1-SGG.
 Alpha  occ. eigenvalues --   -0.43392
 Alpha virt. eigenvalues --    0.05737   0.19695   0.46979   1.08461   1.08461
 Alpha virt. eigenvalues --    1.55103   1.82666   1.82666   1.94597   2.37713
 Alpha virt. eigenvalues --    3.31053

 Mulliken charges:
               1
     1  H    0.000000
     2  H    0.000000
 Sum of Mulliken charges =   0.00000

 Dipole moment (field-independent basis, Debye):
    X=              0.0000    Y=              0.0000    Z=              0.0000  Tot=              0.0000
 Quadrupole moment (field-independent basis, Debye-Ang):
   XX=             -2.1053   YY=             -2.1053   ZZ=             -1.5483
   XY=              0.0000   XZ=              0.0000   YZ=              0.0000

 1\1\GINC-NODE084\FOpt\RB3LYP\6-311G(2d,d,p)\H2\DUMINDA\22-Mar-2019\0\\
 #P opt=(calcfc, noeigentest) b3lyp/cbsb7 scf=xqc iop(2/9=2000)\\name\\
 0,1\H,1.0856134444,0.08634062,0.02756162\H,1.8298725556,0.08634062,0.0
 2756162\\Version=AS64L-G09RevD.01\State=1-SGG\HF=-1.179571\RMSD=2.516e
 -10\RMSF=3.454e-05\Dipole=0.,0.,0.\Quadrupole=0.2760799,-0.13804,-0.13
 804,0.,0.,0.\PG=D*H [C*(H1.H1)]\\@

 Normal termination of Gaussian 09 at Fri Mar 22 11:17:50 2019.
