 Gaussian 09, Revision D.01,
 Gaussian 09:  AS64L-G09RevD.01 24-Apr-2013

 ---------------------------------------
 #P b3lyp/cbsb7 freq iop(7/33=1) scf=xqc
 ---------------------------------------

 ----
 name
 ----
 Symbolic Z-matrix:
 Charge =  0 Multiplicity = 1

                         Standard orientation:
 ---------------------------------------------------------------------
 Center     Atomic      Atomic             Coordinates (Angstroms)
 Number     Number       Type             X           Y           Z
 ---------------------------------------------------------------------
      1          7           0        0.000000   -0.743473   -0.000136
      2          7           0        0.000000    0.743473   -0.000136
      3          1           0        0.590756   -0.986105   -0.794744
      4          1           0        0.589061   -0.986195    0.795699
      5          1           0       -0.589061    0.986195    0.795699
      6          1           0       -0.590756    0.986105   -0.794744
 ---------------------------------------------------------------------

 SCF Done:  E(RB3LYP) =  -111.897638521     A.U. after   10 cycles

 The electronic state is 1-A.
 Alpha  occ. eigenvalues --  -14.31091 -14.31081  -0.93730  -0.75388  -0.51390
 Alpha  occ. eigenvalues --   -0.43823  -0.40639  -0.35132  -0.20520
 Alpha virt. eigenvalues --    0.03958   0.06239   0.09534   0.13132   0.18041
 Alpha virt. eigenvalues --    0.35578   0.37546   0.42385   0.46022   0.58336
 Alpha virt. eigenvalues --    0.59047   0.67482   0.69333   0.73821   0.74438

 Mulliken charges:
               1
     1  N   -0.402363
     2  N   -0.402363
     3  H    0.201211
     4  H    0.201152
     5  H    0.201152
     6  H    0.201211
 Sum of Mulliken charges =   0.00000

 Dipole moment (field-independent basis, Debye):
    X=              0.0000    Y=              0.0000    Z=              0.0035  Tot=              0.0035
 Quadrupole moment (field-independent basis, Debye-Ang):
   XX=            -13.6861   YY=            -14.0103   ZZ=            -10.6629
   XY=             -4.2485   XZ=              0.0000   YZ=              0.0000

  Exact polarizability:  14.229  -3.465  19.345   0.000   0.000  17.722
 Approx polarizability:  18.012  -4.064  24.267   0.000   0.000  23.682

                      1                      2                      3
                      A                      A                      B
 Frequencies --     79.2756               942.2033              1060.5844
 Red. masses --      1.0462                 9.9867                 1.1361
 Frc consts  --      0.0039                 5.2235                 0.7529
 IR Inten    --    125.6932                 0.0000               185.4017

                      4                      5                      6
                      A                      A                      B
 Frequencies --   1113.4573              1244.8417              1485.3174
 Red. masses --      1.0131                 1.2644                 1.1874
 Frc consts  --      0.7400                 1.1544                 1.5434
 IR Inten    --      1.5787                 0.0002                 0.0000

                      7                      8                      9
                      B                      A                      A
 Frequencies --   1636.9136              1696.3759              3424.2298
 Red. masses --      1.0948                 1.0308                 1.0511
 Frc consts  --      1.7283                 1.7478                 7.2614
 IR Inten    --     52.2684                 0.0001                 0.0000

                     10                     11                     12
                      B                      B                      A
 Frequencies --   3442.5126              3491.2657              3512.7845
 Red. masses --      1.0512                 1.0931                 1.0894
 Frc consts  --      7.3395                 7.8499                 7.9206
 IR Inten    --      2.3699                 0.0000                 0.7583

 - Thermochemistry -
 -------------------
 Temperature   298.150 Kelvin.  Pressure   1.00000 Atm.
 Atom     1 has atomic number  7 and mass  14.00307

 Molecular mass:    32.03745 amu.
 Principal axes and moments of inertia in atomic units:
                           1         2         3
     Eigenvalues --    13.04013  74.29141  79.45873
           X           -0.12712   0.00000   0.99189
           Y            0.99189   0.00000   0.12712
           Z            0.00000   1.00000   0.00000
 This molecule is an asymmetric top.
 Rotational symmetry number  2.
 Rotational temperatures (Kelvin)      6.64209     1.16587     1.09005
 Rotational constants (GHZ):         138.39897    24.29273    22.71294
 Zero-point vibrational energy     138346.7 (Joules/Mol)
                                   33.06565 (Kcal/Mol)
 Warning -- explicit consideration of   1 degrees of freedom as
           vibrations may cause significant error
 Vibrational temperatures:    114.06  1355.62  1525.94  1602.01  1791.05
          (Kelvin)           2137.04  2355.15  2440.70  4926.70  4953.00
                             5023.15  5054.11

 Zero-point correction=                           0.052693 (Hartree/Particle)
 Thermal correction to Energy=                    0.056424
 Thermal correction to Enthalpy=                  0.057368
 Thermal correction to Gibbs Free Energy=         0.029741
 Sum of electronic and zero-point Energies=           -111.844945
 Sum of electronic and thermal Energies=              -111.841215
 Sum of electronic and thermal Enthalpies=            -111.840270
 Sum of electronic and thermal Free Energies=         -111.867898

                     E (Thermal)             CV                S
                      KCal/Mol        Cal/Mol-Kelvin    Cal/Mol-Kelvin
 Total                   35.407              9.293             58.147
 Electronic               0.000              0.000              0.000
 Translational            0.889              2.981             36.325
 Rotational               0.889              2.981             17.605
 Vibrational             33.629              3.332              4.217
 Vibration     1          0.600              1.963              3.909

 Optimization completed.
    -- Stationary point found.
 Normal termination of Gaussian 09 at Sat Feb 16 14:00:07 2019.
