 Gaussian 09, Revision D.01,
 Gaussian 09:  AS64L-G09RevD.01 24-Apr-2013

 --------------------------------
 #P opt=calcfc b97d/6-31g scf=xqc
 --------------------------------

 ----
 name
 ----
 Symbolic Z-matrix:
 Charge =  0 Multiplicity = 1

 SCF Done:  E(RB97D) =  -111.737171312     A.U. after   10 cycles

  Exact polarizability:   0.000   0.000   0.000   0.000   0.000   0.000
 Approx polarizability:  25.359   0.000  23.278   4.223   0.000  10.271

 SCF Done:  E(RB97D) =  -111.742497195     A.U. after   12 cycles
 SCF Done:  E(RB97D) =  -111.742497124     A.U. after   12 cycles
 SCF Done:  E(RB97D) =  -111.742804879     A.U. after   10 cycles
 SCF Done:  E(RB97D) =  -111.742844538     A.U. after   10 cycles
 SCF Done:  E(RB97D) =  -111.742848815     A.U. after   11 cycles
 SCF Done:  E(RB97D) =  -111.742852293     A.U. after   10 cycles
 SCF Done:  E(RB97D) =  -111.742852528     A.U. after    7 cycles
 SCF Done:  E(RB97D) =  -111.742852537     A.U. after    6 cycles
 Optimization completed.
    -- Stationary point found.

                         Standard orientation:
 ---------------------------------------------------------------------
 Center     Atomic      Atomic             Coordinates (Angstroms)
 Number     Number       Type             X           Y           Z
 ---------------------------------------------------------------------
      1          7           0        0.750280   -0.000027   -0.151764
      2          7           0       -0.750280   -0.000027    0.151764
      3          1           0        1.106083    0.820378    0.360118
      4          1           0        1.106129   -0.820186    0.360481
      5          1           0       -1.106129   -0.820186   -0.360481
      6          1           0       -1.106083    0.820378   -0.360118
 ---------------------------------------------------------------------

 The electronic state is 1-A.
 Alpha  occ. eigenvalues --  -14.01268 -14.01262  -0.85465  -0.69389  -0.46268
 Alpha  occ. eigenvalues --   -0.38692  -0.37053  -0.27202  -0.14276
 Alpha virt. eigenvalues --    0.05155   0.05800   0.12109   0.13337   0.14225
 Alpha virt. eigenvalues --    0.63891   0.65208   0.70357   0.72132   0.72291
 Alpha virt. eigenvalues --    0.79078   0.87749   0.88445   0.90318   0.90861

 Mulliken charges:
               1
     1  N   -0.579739
     2  N   -0.579739
     3  H    0.289860
     4  H    0.289879
     5  H    0.289879
     6  H    0.289860
 Sum of Mulliken charges =   0.00000

 Dipole moment (field-independent basis, Debye):
    X=              0.0000    Y=              0.0009    Z=              0.0000  Tot=              0.0009
 Quadrupole moment (field-independent basis, Debye-Ang):
   XX=            -12.0873   YY=            -10.3630   ZZ=            -15.7690
   XY=              0.0000   XZ=              4.4342   YZ=              0.0000

 Normal termination of Gaussian 09 at Sat Feb 16 13:48:41 2019.
