 Gaussian 09, Revision D.01,
 Gaussian 09:  AS64L-G09RevD.01 24-Apr-2013

 --------------------------------------------
 #P opt=(noeigentest, calcfc) cbs-qb3 scf=xqc
 --------------------------------------------

 ----
 name
 ----
 Symbolic Z-matrix:
 Charge =  0 Multiplicity = 1

 SCF Done:  E(RB3LYP) =  -1.15275522445     A.U. after    6 cycles
 SCF Done:  E(RB3LYP) =  -1.17442419205     A.U. after    6 cycles
 SCF Done:  E(RB3LYP) =  -1.17953383372     A.U. after    7 cycles
 SCF Done:  E(RB3LYP) =  -1.17957101800     A.U. after    4 cycles
 Optimization completed.
    -- Stationary point found.

 1\1\GINC-NODE006\FOpt\RB3LYP\6-311G(2d,d,p)\H2\DUMINDA\16-Feb-2019\0\\
 #P opt=(noeigentest, calcfc) cbs-qb3 scf=xqc\\name\\0,1\H,1.1980481344
 ,0.01874271,0.06872992\H,1.9423072456,0.01874271,0.06872992\\Version=A
 S64L-G09RevD.01\State=1-SGG\HF=-1.179571\RMSD=2.516e-10\RMSF=3.454e-05
 \Dipole=0.,0.,0.\Quadrupole=0.2760799,-0.13804,-0.13804,0.,0.,0.\PG=D*
 H [C*(H1.H1)]\\@

 Normal termination of Gaussian 09 at Sat Feb 16 13:25:35 2019.

 ---------------------------------------------------------
 #P Geom=AllCheck Guess=TCheck SCRF=Check B3LYP/CBSB7 Freq
 ---------------------------------------------------------

 Structure from the checkpoint file:  "check.chk"
 ----
 name
 ----
 Charge =  0 Multiplicity = 1

 SCF Done:  E(RB3LYP) =  -1.17957101800     A.U. after    1 cycles

  Exact polarizability:   1.096   0.000   1.096   0.000   0.000   6.898
 Approx polarizability:   1.162   0.000   1.162   0.000   0.000   8.199

                      1
                     SGG
 Frequencies --   4418.0530
 Red. masses --      1.0078
 Frc consts  --     11.5904
 IR Inten    --      0.0000

 - Thermochemistry -
 -------------------
 Temperature   298.150 Kelvin.  Pressure   1.00000 Atm.
 Atom     1 has atomic number  1 and mass   1.00783

 Molecular mass:     2.01565 amu.
 Principal axes and moments of inertia in atomic units:
                           1         2         3
     Eigenvalues --     0.00000   0.99678   0.99678
           X            0.00000   1.00000   0.00000
           Y            0.00000   0.00000   1.00000
           Z            1.00000   0.00000   0.00000
 This molecule is a prolate symmetric top.
 Rotational symmetry number  2.
 Rotational temperature (Kelvin)     86.89323
 Rotational constant (GHZ):        1810.563364
 Zero-point vibrational energy      26425.8 (Joules/Mol)
                                    6.31592 (Kcal/Mol)
 Vibrational temperatures:   6356.58
          (Kelvin)

 Zero-point correction=                           0.010065 (Hartree/Particle)
 Thermal correction to Energy=                    0.012426
 Thermal correction to Enthalpy=                  0.013370
 Thermal correction to Gibbs Free Energy=        -0.001426
 Sum of electronic and zero-point Energies=             -1.169506
 Sum of electronic and thermal Energies=                -1.167145
 Sum of electronic and thermal Enthalpies=              -1.166201
 Sum of electronic and thermal Free Energies=           -1.180997

                     E (Thermal)             CV                S
                      KCal/Mol        Cal/Mol-Kelvin    Cal/Mol-Kelvin
 Total                    7.797              4.968             31.140
 Electronic               0.000              0.000              0.000
 Translational            0.889              2.981             28.080
 Rotational               0.592              1.987              3.060
 Vibrational              6.316              0.000              0.000

 Optimization completed.
    -- Stationary point found.

 1\1\GINC-NODE006\Freq\RB3LYP\6-311G(2d,d,p)\H2\DUMINDA\16-Feb-2019\0\\
 #P Geom=AllCheck Guess=TCheck SCRF=Check B3LYP/CBSB7 Freq\\name\\0,1\H
 ,1.1980481344,0.01874271,0.06872992\H,1.9423072456,0.01874271,0.068729
 92\\Version=AS64L-G09RevD.01\State=1-SGG\HF=-1.179571\RMSD=0.000e+00\R
 MSF=3.454e-05\ZeroPoint=0.0100651\Thermal=0.0124255\Dipole=0.,0.,0.\Di
 poleDeriv=0.,0.,0.,0.,0.,0.,0.,0.,0.,0.,0.,0.,0.,0.,0.,0.,0.,0.\Polar=
 6.8979737,0.,1.0962984,0.,0.,1.0962984\PG=D*H [C*(H1.H1)]\NImag=0\\0.3
 7222748,0.,0.00003892,0.,0.,0.00003892,-0.37222748,0.,0.,0.37222748,0.

 Normal termination of Gaussian 09 at Sat Feb 16 13:25:44 2019.

 -----------------------------------------------------------
 #P Geom=AllCheck Guess=TCheck SCRF=Check CCSD(T)/6-31+G(d')
 -----------------------------------------------------------

 Structure from the checkpoint file:  "check.chk"
 ----
 name
 ----
 Charge =  0 Multiplicity = 1

 SCF Done:  E(RHF) =  -1.12668207816     A.U. after    4 cycles
 E2 =    -0.1742746035D-01 EUMP2 =    -0.11441095385167D+01
 CCSD(T)
 CCSD(T)= -0.11516953914D+01
 CSD=-1.1516954\CCSD(T)=-1.1516954\RMSD=2.823e-12\PG=D*H [C*(H1.H1)]\\@
 Normal termination of Gaussian 09 at Sat Feb 16 13:25:48 2019.

 -----------------------------------------------------
 #P Geom=AllCheck Guess=TCheck SCRF=Check MP4SDQ/CBSB4
 -----------------------------------------------------

 Structure from the checkpoint file:  "check.chk"
 ----
 name
 ----
 Charge =  0 Multiplicity = 1

 SCF Done:  E(RHF) =  -1.13124415996     A.U. after    5 cycles
 E2 =    -0.2734738931D-01 EUMP2 =    -0.11585915492762D+01
 Normal termination of Gaussian 09 at Sat Feb 16 13:25:53 2019.

 Structure from the checkpoint file:  "check.chk"
 ----
 name
 ----
 Charge =  0 Multiplicity = 1

                         Standard orientation:
 ---------------------------------------------------------------------
 Center     Atomic      Atomic             Coordinates (Angstroms)
 Number     Number       Type             X           Y           Z
 ---------------------------------------------------------------------
      1          1           0        0.000000    0.000000    0.372130
      2          1           0        0.000000    0.000000   -0.372130
 ---------------------------------------------------------------------

 SCF Done:  E(RHF) =  -1.13295379143     A.U. after    5 cycles
 E2 =    -0.2980517639D-01 EUMP2 =    -0.11627589678183D+01

 The electronic state is 1-SGG.
 Alpha  occ. eigenvalues --   -0.59333
 Alpha virt. eigenvalues --    0.07121   0.07314   0.24251   0.45507   0.67574
 Alpha virt. eigenvalues --    0.67574   0.73482   1.09888   1.10980   1.10980
 Alpha virt. eigenvalues --    1.59803   2.56720   2.75984   3.71370   3.71370

 Mulliken charges:
               1
     1  H    0.000000
     2  H    0.000000
 Sum of Mulliken charges =   0.00000

 Dipole moment (field-independent basis, Debye):
    X=              0.0000    Y=              0.0000    Z=              0.0000  Tot=              0.0000
 Quadrupole moment (field-independent basis, Debye-Ang):
   XX=             -2.0915   YY=             -2.0915   ZZ=             -1.4538
   XY=              0.0000   XZ=              0.0000   YZ=              0.0000

 Normal termination of Gaussian 09 at Sat Feb 16 13:25:57 2019.
