 Gaussian 09, Revision D.01,
 Gaussian 09:  AS64L-G09RevD.01 24-Apr-2013

 ------------------------------------------
 #P opt=calcfc wb97xd/6-311++g(d,p) scf=xqc
 ------------------------------------------

 ----
 name
 ----
 Symbolic Z-matrix:
 Charge =  0 Multiplicity = 1

 SCF Done:  E(RwB97XD) =  -1.14896958804     A.U. after    6 cycles

  Exact polarizability:   0.000   0.000   0.000   0.000   0.000   0.000
 Approx polarizability:   1.118   0.000   1.118   0.000   0.000  10.473

 SCF Done:  E(RwB97XD) =  -1.17089788238     A.U. after    7 cycles
 SCF Done:  E(RwB97XD) =  -1.17603273061     A.U. after    6 cycles
 SCF Done:  E(RwB97XD) =  -1.17607108375     A.U. after    6 cycles
 Optimization completed.
    -- Stationary point found.

                         Standard orientation:
 ---------------------------------------------------------------------
 Center     Atomic      Atomic             Coordinates (Angstroms)
 Number     Number       Type             X           Y           Z
 ---------------------------------------------------------------------
      1          1           0        0.000000    0.000000    0.372227
      2          1           0        0.000000    0.000000   -0.372227
 ---------------------------------------------------------------------

 The electronic state is 1-SGG.
 Alpha  occ. eigenvalues --   -0.51641
 Alpha virt. eigenvalues --    0.07120   0.07696   0.20594   0.42500   0.64269
 Alpha virt. eigenvalues --    1.17214   1.17214   1.69954   1.91544   1.91544
 Alpha virt. eigenvalues --    2.13950   2.58551   3.40850

 Mulliken charges:
               1
     1  H    0.000000
     2  H    0.000000
 Sum of Mulliken charges =   0.00000

 Dipole moment (field-independent basis, Debye):
    X=              0.0000    Y=              0.0000    Z=              0.0000  Tot=              0.0000
 Quadrupole moment (field-independent basis, Debye-Ang):
   XX=             -2.0743   YY=             -2.0743   ZZ=             -1.5147
   XY=              0.0000   XZ=              0.0000   YZ=              0.0000

 1\1\GINC-NODE006\FOpt\RwB97XD\6-311++G(d,p)\H2\DUMINDA\16-Feb-2019\0\\
 #P opt=calcfc wb97xd/6-311++g(d,p) scf=xqc\\name\\0,1\H,1.0570204136,0
 .01188173,-0.06966255\H,1.8014740664,0.01188173,-0.06966255\\Version=A
 S64L-G09RevD.01\State=1-SGG\HF=-1.1760711\RMSD=2.604e-12\RMSF=3.477e-0
 5\Dipole=0.,0.,0.\Quadrupole=0.2773226,-0.1386613,-0.1386613,0.,0.,0.\
 PG=D*H [C*(H1.H1)]\\@

 Normal termination of Gaussian 09 at Sat Feb 16 12:55:44 2019.
